ANIMSTEPS 132
CRYSTAL
PRIMVEC
10.5835449776 0 0
0 10.5835449776 0
0 0 10.5835449776
PRIMCOORD 1
3 1
8 0.000000012 -0.000000112 0.118883585
1 0.002632023 0.764542950 -0.485008386
1 -0.013839088 -0.761569592 -0.478304732
PRIMCOORD 2
3 1
8 0.000000012 -0.000000112 0.118883585
1 0.011007066 0.750107789 -0.482841492
1 0.011691151 -0.748932417 -0.493860527
PRIMCOORD 3
3 1
8 0.000000012 -0.000000112 0.118883585
1 0.022024514 0.747711117 -0.470137131
1 -0.001137569 -0.792159896 -0.491937136
PRIMCOORD 4
3 1
8 0.000000012 -0.000000112 0.118883585
1 0.013421935 0.744641281 -0.461258036
1 0.002550630 -0.793371590 -0.497644338
PRIMCOORD 5
3 1
8 0.000000012 -0.000000112 0.118883585
1 0.015422625 0.765476247 -0.441652222
1 -0.003100541 -0.759904257 -0.506899453
PRIMCOORD 6
3 1
8 0.000000012 -0.000000112 0.118883585
1 0.027246191 0.804993586 -0.448760798
1 0.008503768 -0.746887537 -0.525099112
PRIMCOORD 7
3 1
8 0.000000012 -0.000000112 0.118883585
1 0.028121106 0.793039035 -0.449615821
1 -0.003571783 -0.741527166 -0.511699223
PRIMCOORD 8
3 1
8 0.000000012 -0.000000112 0.118883585
1 0.031754139 0.796916114 -0.449745352
1 0.012323203 -0.729137265 -0.531537386
PRIMCOORD 9
3 1
8 0.000000012 -0.000000112 0.118883585
1 0.023537420 0.802059908 -0.462297786
1 -0.000295500 -0.695201799 -0.502221995
PRIMCOORD 10
3 1
8 0.000000012 -0.000000112 0.118883585
1 0.030211320 0.798283348 -0.448780424
1 0.000136954 -0.705720590 -0.521390140
PRIMCOORD 11
3 1
8 0.000000012 -0.000000112 0.118883585
1 0.038572490 0.798590622 -0.430994643
1 -0.010722574 -0.725782795 -0.533559448
PRIMCOORD 12
3 1
8 0.000000012 -0.000000112 0.118883585
1 0.030625210 0.795131218 -0.435465326
1 -0.029504368 -0.737300682 -0.513944045
PRIMCOORD 13
3 1
8 0.000000012 -0.000000112 0.118883585
1 0.050117970 0.781034393 -0.419352565
1 -0.035811647 -0.743856711 -0.520890755
PRIMCOORD 14
3 1
8 0.000000012 -0.000000112 0.118883585
1 0.056381850 0.774136998 -0.443806970
1 -0.029430103 -0.725761357 -0.490127454
PRIMCOORD 15
3 1
8 0.000000012 -0.000000112 0.118883585
1 0.050522170 0.810269163 -0.472945359
1 -0.033636939 -0.728467228 -0.466466447
PRIMCOORD 16
3 1
8 0.000000012 -0.000000112 0.118883585
1 0.050554044 0.805554501 -0.460518880
1 -0.047634640 -0.742665486 -0.475337116
PRIMCOORD 17
3 1
8 0.000000012 -0.000000112 0.118883585
1 0.064955396 0.796093106 -0.459490573
1 -0.036136217 -0.720973436 -0.463188519
PRIMCOORD 18
3 1
8 0.000000012 -0.000000112 0.118883585
1 0.060889375 0.794434953 -0.481021749
1 -0.025474718 -0.725076419 -0.477770801
PRIMCOORD 19
3 1
8 0.000000012 -0.000000112 0.118883585
1 0.055106172 0.798432941 -0.459540790
1 -0.015975836 -0.746344541 -0.482211908
PRIMCOORD 20
3 1
8 0.000000012 -0.000000112 0.118883585
1 0.063111309 0.824379056 -0.474567615
1 -0.005658418 -0.755804765 -0.455368692
PRIMCOORD 21
3 1
8 0.000000012 -0.000000112 0.118883585
1 0.060047103 0.823702119 -0.457634645
1 0.000852883 -0.755262374 -0.464544843
PRIMCOORD 22
3 1
8 0.000000012 -0.000000112 0.118883585
1 0.054452376 0.791759144 -0.442614468
1 -0.011098244 -0.756765612 -0.461083348
PRIMCOORD 23
3 1
8 0.000000012 -0.000000112 0.118883585
1 0.049837672 0.773862857 -0.426143225
1 -0.013800382 -0.756823264 -0.443651605
PRIMCOORD 24
3 1
8 0.000000012 -0.000000112 0.118883585
1 0.043128907 0.823164717 -0.432847219
1 -0.018120746 -0.767237609 -0.447967192
PRIMCOORD 25
3 1
8 0.000000012 -0.000000112 0.118883585
1 0.043719131 0.825391543 -0.406355629
1 -0.034133843 -0.757665107 -0.469097625
PRIMCOORD 26
3 1
8 0.000000012 -0.000000112 0.118883585
1 0.053835838 0.812507533 -0.404360530
1 -0.034361498 -0.778294037 -0.481922576
PRIMCOORD 27
3 1
8 0.000000012 -0.000000112 0.118883585
1 0.058557941 0.815160840 -0.418958446
1 -0.043627998 -0.785822548 -0.458914361
PRIMCOORD 28
3 1
8 0.000000012 -0.000000112 0.118883585
1 0.072204827 0.818932212 -0.434115412
1 -0.025862602 -0.793226763 -0.450948931
PRIMCOORD 29
3 1
8 0.000000012 -0.000000112 0.118883585
1 0.085150790 0.797245889 -0.443850980
1 -0.007243388 -0.769363149 -0.477857671
PRIMCOORD 30
3 1
8 0.000000012 -0.000000112 0.118883585
1 0.077856211 0.765940210 -0.434409063
1 -0.015685405 -0.768952364 -0.480502059
PRIMCOORD 31
3 1
8 0.000000012 -0.000000112 0.118883585
1 0.110141569 0.748545326 -0.442151553
1 -0.006890305 -0.771952307 -0.446736270
PRIMCOORD 32
3 1
8 0.000000012 -0.000000112 0.118883585
1 0.106548066 0.766321313 -0.449232554
1 0.003420393 -0.807896017 -0.433382884
PRIMCOORD 33
3 1
8 0.000000012 -0.000000112 0.118883585
1 0.115466028 0.767049943 -0.453646290
1 0.004248315 -0.781419413 -0.450399471
PRIMCOORD 34
3 1
8 0.000000012 -0.000000112 0.118883585
1 0.107578921 0.758848555 -0.455017138
1 -0.030416070 -0.768135281 -0.448326589
PRIMCOORD 35
3 1
8 0.000000012 -0.000000112 0.118883585
1 0.126316210 0.760411613 -0.448991726
1 -0.018406042 -0.763745615 -0.452181395
PRIMCOORD 36
3 1
8 0.000000012 -0.000000112 0.118883585
1 0.113232139 0.765716459 -0.430360818
1 0.019018440 -0.755032251 -0.443508267
PRIMCOORD 37
3 1
8 0.000000012 -0.000000112 0.118883585
1 0.086725086 0.757154232 -0.430484499
1 0.031570568 -0.775907012 -0.444969510
PRIMCOORD 38
3 1
8 0.000000012 -0.000000112 0.118883585
1 0.082162459 0.801257285 -0.437392764
1 -0.000727838 -0.766888973 -0.471665800
PRIMCOORD 39
3 1
8 0.000000012 -0.000000112 0.118883585
1 0.085123431 0.785251639 -0.435092465
1 0.036454651 -0.778564783 -0.497364330
PRIMCOORD 40
3 1
8 0.000000012 -0.000000112 0.118883585
1 0.089677803 0.785315979 -0.426168141
1 0.028387292 -0.780017899 -0.491616445
PRIMCOORD 41
3 1
8 0.000000012 -0.000000112 0.118883585
1 0.104445832 0.772987620 -0.423884322
1 0.034204126 -0.767900062 -0.456677035
PRIMCOORD 42
3 1
8 0.000000012 -0.000000112 0.118883585
1 0.078269561 0.767910481 -0.417435450
1 0.023325801 -0.764339029 -0.456208667
PRIMCOORD 43
3 1
8 0.000000012 -0.000000112 0.118883585
1 0.077531925 0.815281842 -0.437229540
1 0.024812330 -0.780452353 -0.460017869
PRIMCOORD 44
3 1
8 0.000000012 -0.000000112 0.118883585
1 0.094209184 0.803169513 -0.402652910
1 0.027403224 -0.791462528 -0.459089946
PRIMCOORD 45
3 1
8 0.000000012 -0.000000112 0.118883585
1 0.099647022 0.841348290 -0.428928683
1 0.015220332 -0.772263485 -0.442284081
PRIMCOORD 46
3 1
8 0.000000012 -0.000000112 0.118883585
1 0.139593741 0.848927105 -0.418997875
1 0.001675821 -0.773838129 -0.430423426
PRIMCOORD 47
3 1
8 0.000000012 -0.000000112 0.118883585
1 0.147565328 0.825597390 -0.394118968
1 0.001428155 -0.767168910 -0.445814790
PRIMCOORD 48
3 1
8 0.000000012 -0.000000112 0.118883585
1 0.125176780 0.813512792 -0.399312914
1 -0.025787987 -0.777369495 -0.462518980
PRIMCOORD 49
3 1
8 0.000000012 -0.000000112 0.118883585
1 0.132075211 0.798778464 -0.409655768
1 -0.025351570 -0.796576757 -0.449471183
PRIMCOORD 50
3 1
8 0.000000012 -0.000000112 0.118883585
1 0.127000110 0.790066329 -0.394619678
1 -0.054683163 -0.805513608 -0.446948644
PRIMCOORD 51
3 1
8 0.000000012 -0.000000112 0.118883585
1 0.113135127 0.791553647 -0.400940075
1 -0.063542157 -0.802394348 -0.441885261
PRIMCOORD 52
3 1
8 0.000000012 -0.000000112 0.118883585
1 0.086347942 0.765999760 -0.392121091
1 -0.052582733 -0.800841520 -0.445559678
PRIMCOORD 53
3 1
8 0.000000012 -0.000000112 0.118883585
1 0.086977542 0.793727924 -0.395721999
1 -0.052193320 -0.806708929 -0.457012632
PRIMCOORD 54
3 1
8 0.000000012 -0.000000112 0.118883585
1 0.090848411 0.793124379 -0.429651689
1 -0.054035379 -0.807599970 -0.460328582
PRIMCOORD 55
3 1
8 0.000000012 -0.000000112 0.118883585
1 0.078381543 0.808108527 -0.423079062
1 -0.055155779 -0.780228638 -0.464078387
PRIMCOORD 56
3 1
8 0.000000012 -0.000000112 0.118883585
1 0.054232599 0.812829476 -0.436503412
1 -0.044644401 -0.758302488 -0.466293236
PRIMCOORD 57
3 1
8 0.000000012 -0.000000112 0.118883585
1 0.042764209 0.827917935 -0.428945908
1 -0.055122386 -0.767669472 -0.476215250
PRIMCOORD 58
3 1
8 0.000000012 -0.000000112 0.118883585
1 0.052367936 0.811521772 -0.425443251
1 -0.044031221 -0.747023572 -0.462917202
PRIMCOORD 59
3 1
8 0.000000012 -0.000000112 0.118883585
1 0.029468945 0.819315673 -0.437288774
1 -0.024510677 -0.743871717 -0.497394286
PRIMCOORD 60
3 1
8 0.000000012 -0.000000112 0.118883585
1 0.032582319 0.813921255 -0.447532905
1 -0.020649929 -0.763732082 -0.512176018
PRIMCOORD 61
3 1
8 0.000000012 -0.000000112 0.118883585
1 0.046996709 0.798373155 -0.451013994
1 -0.017340370 -0.770098212 -0.525106899
PRIMCOORD 62
3 1
8 0.000000012 -0.000000112 0.118883585
1 0.050474678 0.804416319 -0.445074678
1 -0.027162642 -0.767131405 -0.508357221
PRIMCOORD 63
3 1
8 0.000000012 -0.000000112 0.118883585
1 0.053089980 0.780879162 -0.449991372
1 -0.026080719 -0.776979110 -0.513102966
PRIMCOORD 64
3 1
8 0.000000012 -0.000000112 0.118883585
1 0.061176132 0.776384271 -0.440278986
1 -0.037669466 -0.763539460 -0.506668970
PRIMCOORD 65
3 1
8 0.000000012 -0.000000112 0.118883585
1 0.060634249 0.774056514 -0.445979102
1 -0.040410959 -0.755494945 -0.506316771
PRIMCOORD 66
3 1
8 0.000000012 -0.000000112 0.118883585
1 0.077159433 0.785878769 -0.419999040
1 -0.037131391 -0.738101182 -0.521108241
PRIMCOORD 67
3 1
8 0.000000012 -0.000000112 0.118883585
1 0.087509772 0.776963533 -0.433707134
1 -0.026540628 -0.724767716 -0.492172856
PRIMCOORD 68
3 1
8 0.000000012 -0.000000112 0.118883585
1 0.099516355 0.796081825 -0.433423571
1 -0.018307362 -0.749196319 -0.508682319
PRIMCOORD 69
3 1
8 0.000000012 -0.000000112 0.118883585
1 0.086209283 0.787890957 -0.428829606
1 -0.025197211 -0.755668282 -0.499743219
PRIMCOORD 70
3 1
8 0.000000012 -0.000000112 0.118883585
1 0.076589516 0.778776373 -0.443227713
1 -0.002067848 -0.738725184 -0.451432080
PRIMCOORD 71
3 1
8 0.000000012 -0.000000112 0.118883585
1 0.064030928 0.783185725 -0.445026010
1 0.006139626 -0.749921078 -0.422154967
PRIMCOORD 72
3 1
8 0.000000012 -0.000000112 0.118883585
1 0.038982885 0.769573741 -0.428735999
1 0.005758528 -0.775096762 -0.420556889
PRIMCOORD 73
3 1
8 0.000000012 -0.000000112 0.118883585
1 0.048346748 0.764808979 -0.444421856
1 0.009211190 -0.777691613 -0.437723552
PRIMCOORD 74
3 1
8 0.000000012 -0.000000112 0.118883585
1 0.060790315 0.777899447 -0.441599354
1 0.002251038 -0.768780388 -0.419439934
PRIMCOORD 75
3 1
8 0.000000012 -0.000000112 0.118883585
1 0.086844169 0.762056962 -0.391679137
1 -0.006257143 -0.768165263 -0.424435382
PRIMCOORD 76
3 1
8 0.000000012 -0.000000112 0.118883585
1 0.070834815 0.777158073 -0.392548805
1 -0.022706325 -0.770729204 -0.421407677
PRIMCOORD 77
3 1
8 0.000000012 -0.000000112 0.118883585
1 0.080543403 0.786142539 -0.444254737
1 -0.019679655 -0.782504406 -0.432364100
PRIMCOORD 78
3 1
8 0.000000012 -0.000000112 0.118883585
1 0.075361174 0.782452296 -0.429336908
1 -0.022436344 -0.768725536 -0.424314523
PRIMCOORD 79
3 1
8 0.000000012 -0.000000112 0.118883585
1 0.072297926 0.764961156 -0.441212860
1 -0.039522503 -0.773597474 -0.417684192
PRIMCOORD 80
3 1
8 0.000000012 -0.000000112 0.118883585
1 0.089561992 0.770456654 -0.467870347
1 -0.057274560 -0.785338630 -0.425504350
PRIMCOORD 81
3 1
8 0.000000012 -0.000000112 0.118883585
1 0.109474042 0.757535696 -0.505124461
1 -0.081460462 -0.799595096 -0.403610252
PRIMCOORD 82
3 1
8 0.000000012 -0.000000112 0.118883585
1 0.107203888 0.744703690 -0.522311072
1 -0.065516404 -0.809433885 -0.404343691
PRIMCOORD 83
3 1
8 0.000000012 -0.000000112 0.118883585
1 0.113184696 0.724276030 -0.488639212
1 -0.084005079 -0.807621324 -0.408203788
PRIMCOORD 84
3 1
8 0.000000012 -0.000000112 0.118883585
1 0.136560475 0.727510649 -0.505495813
1 -0.076542734 -0.792559448 -0.390722217
PRIMCOORD 85
3 1
8 0.000000012 -0.000000112 0.118883585
1 0.151400011 0.727633335 -0.502553133
1 -0.095172629 -0.797884214 -0.400786089
PRIMCOORD 86
3 1
8 0.000000012 -0.000000112 0.118883585
1 0.152262079 0.703056284 -0.508615513
1 -0.107939976 -0.790006531 -0.404817798
PRIMCOORD 87
3 1
8 0.000000012 -0.000000112 0.118883585
1 0.145427909 0.696027424 -0.519621246
1 -0.131344784 -0.798141217 -0.419620228
PRIMCOORD 88
3 1
8 0.000000012 -0.000000112 0.118883585
1 0.168382574 0.706721635 -0.505370965
1 -0.144247138 -0.799823967 -0.410194631
PRIMCOORD 89
3 1
8 0.000000012 -0.000000112 0.118883585
1 0.185709440 0.749308561 -0.511285134
1 -0.123763780 -0.807647316 -0.434832279
PRIMCOORD 90
3 1
8 0.000000012 -0.000000112 0.118883585
1 0.175076671 0.756887423 -0.478603141
1 -0.128780930 -0.788025359 -0.425786363
PRIMCOORD 91
3 1
8 0.000000012 -0.000000112 0.118883585
1 0.184993341 0.745627676 -0.489891423
1 -0.134109377 -0.792818946 -0.451871163
PRIMCOORD 92
3 1
8 0.000000012 -0.000000112 0.118883585
1 0.200923262 0.739175960 -0.492787987
1 -0.147857132 -0.786448096 -0.425766061
PRIMCOORD 93
3 1
8 0.000000012 -0.000000112 0.118883585
1 0.177033674 0.737274448 -0.497635984
1 -0.163307875 -0.798917887 -0.401069698
PRIMCOORD 94
3 1
8 0.000000012 -0.000000112 0.118883585
1 0.181408917 0.756025370 -0.490382095
1 -0.149073758 -0.801884638 -0.423305930
PRIMCOORD 95
3 1
8 0.000000012 -0.000000112 0.118883585
1 0.190246230 0.754684128 -0.477781753
1 -0.131291322 -0.789962587 -0.441481993
PRIMCOORD 96
3 1
8 0.000000012 -0.000000112 0.118883585
1 0.173978998 0.738899312 -0.488358353
1 -0.139107604 -0.792201240 -0.450574023
PRIMCOORD 97
3 1
8 0.000000012 -0.000000112 0.118883585
1 0.167300310 0.691387841 -0.489813753
1 -0.118871068 -0.777318096 -0.451773444
PRIMCOORD 98
3 1
8 0.000000012 -0.000000112 0.118883585
1 0.188448075 0.718854369 -0.501855068
1 -0.108101942 -0.788130863 -0.451213251
PRIMCOORD 99
3 1
8 0.000000012 -0.000000112 0.118883585
1 0.183245157 0.734090166 -0.511873084
1 -0.093887918 -0.772271814 -0.427087157
PRIMCOORD 100
3 1
8 0.000000012 -0.000000112 0.118883585
1 0.179508100 0.731493825 -0.507176541
1 -0.112082545 -0.789505514 -0.436244359
PRIMCOORD 101
3 1
8 0.000000012 -0.000000112 0.118883585
1 0.163377805 0.719893681 -0.508232986
1 -0.116696910 -0.780811166 -0.454286738
PRIMCOORD 102
3 1
8 0.000000012 -0.000000112 0.118883585
1 0.174943579 0.710913016 -0.528691507
1 -0.124571073 -0.818486362 -0.448315114
PRIMCOORD 103
3 1
8 0.000000012 -0.000000112 0.118883585
1 0.165503213 0.713775743 -0.519452396
1 -0.127829074 -0.824087841 -0.412290339
PRIMCOORD 104
3 1
8 0.000000012 -0.000000112 0.118883585
1 0.152305416 0.752177787 -0.527480648
1 -0.113371946 -0.798564489 -0.399982602
PRIMCOORD 105
3 1
8 0.000000012 -0.000000112 0.118883585
1 0.152887752 0.737519237 -0.507957948
1 -0.125812992 -0.779630451 -0.372609536
PRIMCOORD 106
3 1
8 0.000000012 -0.000000112 0.118883585
1 0.168831665 0.721668097 -0.492507737
1 -0.136567120 -0.789719692 -0.414638356
PRIMCOORD 107
3 1
8 0.000000012 -0.000000112 0.118883585
1 0.178102575 0.722752536 -0.493757685
1 -0.155613071 -0.762685042 -0.464641096
PRIMCOORD 108
3 1
8 0.000000012 -0.000000112 0.118883585
1 0.199083771 0.754298209 -0.467095207
1 -0.160181918 -0.765457981 -0.454994853
PRIMCOORD 109
3 1
8 0.000000012 -0.000000112 0.118883585
1 0.197936927 0.748516583 -0.450185369
1 -0.170306579 -0.744023651 -0.449624193
PRIMCOORD 110
3 1
8 0.000000012 -0.000000112 0.118883585
1 0.224091287 0.734736408 -0.433856050
1 -0.168251735 -0.752974196 -0.428828345
PRIMCOORD 111
3 1
8 0.000000012 -0.000000112 0.118883585
1 0.222490421 0.742391434 -0.439877659
1 -0.154623111 -0.783886570 -0.420269149
PRIMCOORD 112
3 1
8 0.000000012 -0.000000112 0.118883585
1 0.219230764 0.728476233 -0.461508263
1 -0.130208089 -0.787208098 -0.423722102
PRIMCOORD 113
3 1
8 0.000000012 -0.000000112 0.118883585
1 0.200395974 0.715537866 -0.493724568
1 -0.124103555 -0.783810531 -0.441085565
PRIMCOORD 114
3 1
8 0.000000012 -0.000000112 0.118883585
1 0.193182262 0.733414618 -0.517869585
1 -0.149057408 -0.756268526 -0.456198400
PRIMCOORD 115
3 1
8 0.000000012 -0.000000112 0.118883585
1 0.197632792 0.738045107 -0.521458430
1 -0.143321960 -0.744230641 -0.437919215
PRIMCOORD 116
3 1
8 0.000000012 -0.000000112 0.118883585
1 0.185782716 0.729120570 -0.503843843
1 -0.136113023 -0.747967875 -0.440098094
PRIMCOORD 117
3 1
8 0.000000012 -0.000000112 0.118883585
1 0.159370922 0.739878258 -0.504245815
1 -0.123335794 -0.755910802 -0.427296442
PRIMCOORD 118
3 1
8 0.000000012 -0.000000112 0.118883585
1 0.158330615 0.716248187 -0.506477098
1 -0.132456207 -0.753454266 -0.443193567
PRIMCOORD 119
3 1
8 0.000000012 -0.000000112 0.118883585
1 0.165585028 0.697419524 -0.495186337
1 -0.129864392 -0.751226871 -0.450568995
PRIMCOORD 120
3 1
8 0.000000012 -0.000000112 0.118883585
1 0.168635472 0.696369532 -0.478922778
1 -0.130988985 -0.740145732 -0.450360088
PRIMCOORD 121
3 1
8 0.000000012 -0.000000112 0.118883585
1 0.164021132 0.713869631 -0.501100147
1 -0.112930353 -0.739540251 -0.447437364
PRIMCOORD 122
3 1
8 0.000000012 -0.000000112 0.118883585
1 0.174606791 0.716675072 -0.493934918
1 -0.128543306 -0.777667064 -0.441811766
PRIMCOORD 123
3 1
8 0.000000012 -0.000000112 0.118883585
1 0.161049737 0.725200420 -0.496500374
1 -0.140948563 -0.762759151 -0.482814825
PRIMCOORD 124
3 1
8 0.000000012 -0.000000112 0.118883585
1 0.175070545 0.729201934 -0.467045668
1 -0.131211289 -0.774313414 -0.468687846
PRIMCOORD 125
3 1
8 0.000000012 -0.000000112 0.118883585
1 0.190247615 0.724389293 -0.472819382
1 -0.143327320 -0.776939490 -0.466789421
PRIMCOORD 126
3 1
8 0.000000012 -0.000000112 0.118883585
1 0.186508012 0.720649743 -0.495010053
1 -0.143148185 -0.761236425 -0.465250607
PRIMCOORD 127
3 1
8 0.000000012 -0.000000112 0.118883585
1 0.199222717 0.720903570 -0.491331247
1 -0.127472361 -0.774165606 -0.443777968
PRIMCOORD 128
3 1
8 0.000000012 -0.000000112 0.118883585
1 0.195761977 0.712233745 -0.505816790
1 -0.113827363 -0.754150905 -0.449140075
PRIMCOORD 129
3 1
8 0.000000012 -0.000000112 0.118883585
1 0.207395128 0.730809103 -0.505677584
1 -0.114898663 -0.741560355 -0.447348570
PRIMCOORD 130
3 1
8 0.000000012 -0.000000112 0.118883585
1 0.173551733 0.745229768 -0.491023023
1 -0.111673582 -0.739553956 -0.451747009
PRIMCOORD 131
3 1
8 0.000000012 -0.000000112 0.118883585
1 0.197822792 0.740705961 -0.506007406
1 -0.105316509 -0.739369021 -0.483418043
PRIMCOORD 132
3 1
8 0.000000012 -0.000000112 0.118883585
1 0.186168644 0.709439377 -0.500266773
1 -0.104101943 -0.749489047 -0.485783275
