
     Program PWSCF v.5.3.0 (svn rev. 11974) starts on 23Aug2016 at  2:34:43 

     This program is part of the open-source Quantum ESPRESSO suite
     for quantum simulation of materials; please cite
         "P. Giannozzi et al., J. Phys.:Condens. Matter 21 395502 (2009);
          URL http://www.quantum-espresso.org", 
     in publications or presentations arising from this work. More details at
     http://www.quantum-espresso.org/quote

     Parallel version (MPI), running on    16 processors
     R & G space division:  proc/nbgrp/npool/nimage =      16
     Reading input from h2o_water.in

     Current dimensions of program PWSCF are:
     Max number of different atomic species (ntypx) = 10
     Max number of k-points (npk) =  40000
     Max angular momentum in pseudopotentials (lmaxx) =  3

     Subspace diagonalization in iterative solution of the eigenvalue problem:
     a serial algorithm will be used

 
     Parallelization info
     --------------------
     sticks:   dense  smooth     PW     G-vecs:    dense   smooth      PW
     Min         398     398     99                23894    23894    2987
     Max         399     399    100                23896    23896    2990
     Sum        6369    6369   1597               382323   382323   47833
 


     bravais-lattice index     =            1
     lattice parameter (alat)  =      20.0000  a.u.
     unit-cell volume          =    8000.0000 (a.u.)^3
     number of atoms/cell      =            3
     number of atomic types    =            2
     number of electrons       =         8.00
     number of Kohn-Sham states=            4
     kinetic-energy cutoff     =      50.0000  Ry
     charge density cutoff     =     200.0000  Ry
     convergence threshold     =      5.0E-09
     mixing beta               =       0.4000
     number of iterations used =            8  plain     mixing
     Exchange-correlation      = SLA  PW   PBE  PBE ( 1  4  3  4 0 0)
     nstep                     =       100000

 

     Environ Module
     ==============

     Please cite
         "O. Andreussi, I. Dabo and N. Marzari, J. Chem. Phys. 136, 064102 (2012);"
     in publications or presentations arising from this work.

     compensation onset threshold      =               0.1000E+00 
     switching function adopted        =                     SCCS 
     density limit for vacuum region   =               0.5000E-02 
     density limit for bulk solvent    =               0.1000E-03 
     static permittivity               =                    78.30 
     epsilon calculation mode          =                     full 
     type of numerical differentiator  =            central diff. 
     number of points in num. diff.    =                        2 
     required accuracy                 =               0.1000E-12 
     linear mixing parameter           =                     0.60 
     surface tension in input (dyn/cm) =                    50.00 
     surface tension in internal units =               0.6423E-04 
     delta parameter for surface depth =               0.1000E-04 
     external pressure in input (GPa)  =                    -0.35 
     external pressure in inter. units =              -0.2379E-04 
 
     Assuming isolated system, Martyna-Tuckerman method


     celldm(1)=  20.000000  celldm(2)=   0.000000  celldm(3)=   0.000000
     celldm(4)=   0.000000  celldm(5)=   0.000000  celldm(6)=   0.000000

     crystal axes: (cart. coord. in units of alat)
               a(1) = (   1.000000   0.000000   0.000000 )  
               a(2) = (   0.000000   1.000000   0.000000 )  
               a(3) = (   0.000000   0.000000   1.000000 )  

     reciprocal axes: (cart. coord. in units 2 pi/alat)
               b(1) = (  1.000000  0.000000  0.000000 )  
               b(2) = (  0.000000  1.000000  0.000000 )  
               b(3) = (  0.000000  0.000000  1.000000 )  


     PseudoPot. # 1 for H  read from file:
     ./h.upf
     MD5 check sum: a4f4fb22ca092365623fe8d59417abbf
     Pseudo is Norm-conserving, Zval =  1.0
     Generated by new atomic code, or converted to UPF format
     Using radial grid of 1076 points,  0 beta functions with: 

     PseudoPot. # 2 for O  read from file:
     ./o.upf
     MD5 check sum: c16a85882d7b2776ac6f1af1eebd4fa7
     Pseudo is Norm-conserving, Zval =  6.0
     Generated by new atomic code, or converted to UPF format
     Using radial grid of 1130 points,  1 beta functions with: 
                l(1) =   1

     atomic species   valence    mass     pseudopotential
        H              1.00     1.00000     H ( 1.00)
        O              6.00    16.00000     O ( 1.00)

     No symmetry found


                                    s                        frac. trans.

      isym =  1     identity                                     

 cryst.   s( 1) = (     1          0          0      )
                  (     0          1          0      )
                  (     0          0          1      )

 cart.    s( 1) = (  1.0000000  0.0000000  0.0000000 )
                  (  0.0000000  1.0000000  0.0000000 )
                  (  0.0000000  0.0000000  1.0000000 )


     point group C_1 (1)    
     there are  1 classes
     the character table:

       E    
A      1.00

     the symmetry operations in each class and the name of the first element:

     E        1
          identity                                               

   Cartesian axes

     site n.     atom                  positions (alat units)
         1           O   tau(   1) = (   0.0000000  -0.0000000   0.0112329  )
         2           H   tau(   2) = (  -0.0000000   0.0721713  -0.0449063  )
         3           H   tau(   3) = (  -0.0000000  -0.0721713  -0.0449063  )

   Crystallographic axes

     site n.     atom                  positions (cryst. coord.)
         1           O   tau(   1) = (  0.0000000 -0.0000000  0.0112329  )
         2           H   tau(   2) = ( -0.0000000  0.0721713 -0.0449063  )
         3           H   tau(   3) = ( -0.0000000 -0.0721713 -0.0449063  )

     number of k points=     1
                       cart. coord. in units 2pi/alat
        k(    1) = (   0.0000000   0.0000000   0.0000000), wk =   2.0000000

                       cryst. coord.
        k(    1) = (   0.0000000   0.0000000   0.0000000), wk =   2.0000000

     Dense  grid:   382323 G-vectors     FFT dimensions: (  96,  96,  96)

     Largest allocated arrays     est. size (Mb)     dimensions
        Kohn-Sham Wavefunctions         0.18 Mb     (    2989,    4)
        NL pseudopotentials             0.14 Mb     (    2989,    3)
        Each V/rho on FFT grid          0.84 Mb     (   55296)
        Each G-vector array             0.18 Mb     (   23896)
        G-vector shells                 0.01 Mb     (    1641)
     Largest temporary arrays     est. size (Mb)     dimensions
        Auxiliary wavefunctions         0.73 Mb     (    2989,   16)
        Each subspace H/S matrix        0.00 Mb     (      16,   16)
        Each <psi_i|beta_j> matrix      0.00 Mb     (       3,    4)
        Arrays for rho mixing           6.75 Mb     (   55296,    8)

     The initial density is read from file :
     ./h2o_water_mt.save/charge-density.dat

     Starting wfc are    6 randomized atomic wfcs

     total cpu time spent up to now is        1.6 secs

     Self-consistent Calculation

     iteration #  1     ecut=    50.00 Ry     beta=0.40
     Davidson diagonalization with overlap
     ethr =  1.00E-05,  avg # of iterations =  5.0

     add environment contribution to local potential

     total cpu time spent up to now is        3.5 secs

     total energy              =     -34.03442617 Ry
     Harris-Foulkes estimate   =     -34.04536577 Ry
     estimated scf accuracy    <       0.00901781 Ry
     solvation energy          =       0.00000000 Ry
     cavitation energy         =       0.01375930 Ry
     PV energy                 =      -0.00702516 Ry

     iteration #  2     ecut=    50.00 Ry     beta=0.40
     Davidson diagonalization with overlap
     ethr =  1.13E-04,  avg # of iterations =  4.0

     add environment contribution to local potential

     total cpu time spent up to now is        5.1 secs

     total energy              =     -34.06061037 Ry
     Harris-Foulkes estimate   =     -33.97890478 Ry
     estimated scf accuracy    <       0.00517900 Ry
     solvation energy          =      -0.02699442 Ry
     cavitation energy         =       0.01368927 Ry
     PV energy                 =      -0.00697178 Ry

     iteration #  3     ecut=    50.00 Ry     beta=0.40
     Davidson diagonalization with overlap
     ethr =  6.47E-05,  avg # of iterations =  1.0

     add environment contribution to local potential

     total cpu time spent up to now is        6.5 secs

     total energy              =     -34.06053406 Ry
     Harris-Foulkes estimate   =     -33.97524156 Ry
     estimated scf accuracy    <       0.00168130 Ry
     solvation energy          =      -0.02894324 Ry
     cavitation energy         =       0.01362877 Ry
     PV energy                 =      -0.00692707 Ry

     iteration #  4     ecut=    50.00 Ry     beta=0.40
     Davidson diagonalization with overlap
     ethr =  2.10E-05,  avg # of iterations =  2.0

     add environment contribution to local potential

     total cpu time spent up to now is        7.4 secs

     total energy              =     -34.06216670 Ry
     Harris-Foulkes estimate   =     -33.97095609 Ry
     estimated scf accuracy    <       0.00017136 Ry
     solvation energy          =      -0.03021419 Ry
     cavitation energy         =       0.01364314 Ry
     PV energy                 =      -0.00693810 Ry

     iteration #  5     ecut=    50.00 Ry     beta=0.40
     Davidson diagonalization with overlap
     ethr =  2.14E-06,  avg # of iterations =  1.0

     add environment contribution to local potential

     total cpu time spent up to now is        8.6 secs

     total energy              =     -34.06182912 Ry
     Harris-Foulkes estimate   =     -33.96942639 Ry
     estimated scf accuracy    <       0.00025372 Ry
     solvation energy          =      -0.03051075 Ry
     cavitation energy         =       0.01363736 Ry
     PV energy                 =      -0.00693422 Ry

     iteration #  6     ecut=    50.00 Ry     beta=0.40
     Davidson diagonalization with overlap
     ethr =  2.14E-06,  avg # of iterations =  1.0

     add environment contribution to local potential

     total cpu time spent up to now is        9.7 secs

     total energy              =     -34.06163995 Ry
     Harris-Foulkes estimate   =     -33.96697114 Ry
     estimated scf accuracy    <       0.00018725 Ry
     solvation energy          =      -0.03123821 Ry
     cavitation energy         =       0.01362618 Ry
     PV energy                 =      -0.00692648 Ry

     iteration #  7     ecut=    50.00 Ry     beta=0.40
     Davidson diagonalization with overlap
     ethr =  2.14E-06,  avg # of iterations =  1.0

     add environment contribution to local potential

     total cpu time spent up to now is       10.6 secs

     total energy              =     -34.06227147 Ry
     Harris-Foulkes estimate   =     -33.96337289 Ry
     estimated scf accuracy    <       0.00009486 Ry
     solvation energy          =      -0.03180440 Ry
     cavitation energy         =       0.01362709 Ry
     PV energy                 =      -0.00692719 Ry

     iteration #  8     ecut=    50.00 Ry     beta=0.40
     Davidson diagonalization with overlap
     ethr =  1.19E-06,  avg # of iterations =  1.0

     add environment contribution to local potential

     total cpu time spent up to now is       11.7 secs

     total energy              =     -34.06212066 Ry
     Harris-Foulkes estimate   =     -33.96334917 Ry
     estimated scf accuracy    <       0.00009582 Ry
     solvation energy          =      -0.03187929 Ry
     cavitation energy         =       0.01362528 Ry
     PV energy                 =      -0.00692601 Ry

     iteration #  9     ecut=    50.00 Ry     beta=0.40
     Davidson diagonalization with overlap
     ethr =  1.19E-06,  avg # of iterations =  1.0

     add environment contribution to local potential

     total cpu time spent up to now is       12.7 secs

     total energy              =     -34.06208555 Ry
     Harris-Foulkes estimate   =     -33.96243230 Ry
     estimated scf accuracy    <       0.00007988 Ry
     solvation energy          =      -0.03211710 Ry
     cavitation energy         =       0.01362239 Ry
     PV energy                 =      -0.00692410 Ry

     iteration # 10     ecut=    50.00 Ry     beta=0.40
     Davidson diagonalization with overlap
     ethr =  9.99E-07,  avg # of iterations =  1.0

     add environment contribution to local potential

     total cpu time spent up to now is       13.9 secs

     total energy              =     -34.06099686 Ry
     Harris-Foulkes estimate   =     -33.96126977 Ry
     estimated scf accuracy    <       0.00006105 Ry
     solvation energy          =      -0.03301182 Ry
     cavitation energy         =       0.01360134 Ry
     PV energy                 =      -0.00691000 Ry

     iteration # 11     ecut=    50.00 Ry     beta=0.40
     Davidson diagonalization with overlap
     ethr =  7.63E-07,  avg # of iterations =  2.0

     add environment contribution to local potential

     total cpu time spent up to now is       14.9 secs

     total energy              =     -34.06229085 Ry
     Harris-Foulkes estimate   =     -33.95273179 Ry
     estimated scf accuracy    <       0.00000002 Ry
     solvation energy          =      -0.03429945 Ry
     cavitation energy         =       0.01360221 Ry
     PV energy                 =      -0.00691066 Ry

     iteration # 12     ecut=    50.00 Ry     beta=0.40
     Davidson diagonalization with overlap
     ethr =  2.01E-10,  avg # of iterations =  4.0

     add environment contribution to local potential

     total cpu time spent up to now is       15.8 secs

     total energy              =     -34.06229507 Ry
     Harris-Foulkes estimate   =     -33.95274381 Ry
     estimated scf accuracy    <       0.00000021 Ry
     solvation energy          =      -0.03429239 Ry
     cavitation energy         =       0.01360205 Ry
     PV energy                 =      -0.00691054 Ry

     iteration # 13     ecut=    50.00 Ry     beta=0.40
     Davidson diagonalization with overlap
     ethr =  2.01E-10,  avg # of iterations =  1.0

     add environment contribution to local potential

     total cpu time spent up to now is       16.7 secs

     total energy              =     -34.06229139 Ry
     Harris-Foulkes estimate   =     -33.95279354 Ry
     estimated scf accuracy    <       0.00000019 Ry
     solvation energy          =      -0.03427930 Ry
     cavitation energy         =       0.01360247 Ry
     PV energy                 =      -0.00691094 Ry

     iteration # 14     ecut=    50.00 Ry     beta=0.40
     Davidson diagonalization with overlap
     ethr =  2.01E-10,  avg # of iterations =  3.0

     add environment contribution to local potential

     total cpu time spent up to now is       17.6 secs

     total energy              =     -34.06227600 Ry
     Harris-Foulkes estimate   =     -33.95272247 Ry
     estimated scf accuracy    <       0.00000002 Ry
     solvation energy          =      -0.03427987 Ry
     cavitation energy         =       0.01360310 Ry
     PV energy                 =      -0.00691151 Ry

     iteration # 15     ecut=    50.00 Ry     beta=0.40
     Davidson diagonalization with overlap
     ethr =  2.01E-10,  avg # of iterations =  4.0

     add environment contribution to local potential

     total cpu time spent up to now is       18.5 secs

     total energy              =     -34.06229405 Ry
     Harris-Foulkes estimate   =     -33.95252576 Ry
     estimated scf accuracy    <       0.00000005 Ry
     solvation energy          =      -0.03429005 Ry
     cavitation energy         =       0.01360283 Ry
     PV energy                 =      -0.00691129 Ry

     iteration # 16     ecut=    50.00 Ry     beta=0.40
     Davidson diagonalization with overlap
     ethr =  2.01E-10,  avg # of iterations =  2.0

     add environment contribution to local potential

     total cpu time spent up to now is       19.3 secs

     total energy              =     -34.06228936 Ry
     Harris-Foulkes estimate   =     -33.95259433 Ry
     estimated scf accuracy    <       0.00000003 Ry
     solvation energy          =      -0.03428493 Ry
     cavitation energy         =       0.01360261 Ry
     PV energy                 =      -0.00691110 Ry

     iteration # 17     ecut=    50.00 Ry     beta=0.40
     Davidson diagonalization with overlap
     ethr =  2.01E-10,  avg # of iterations =  2.0

     total cpu time spent up to now is       19.5 secs

     End of self-consistent calculation

          k = 0.0000 0.0000 0.0000 ( 47833 PWs)   bands (ev):

   -24.6990 -12.5677  -9.0141  -6.9528

     occupation numbers 
     1.0000   1.0000   1.0000   1.0000

     highest occupied level (ev):    -6.9528

!    total energy              =     -34.06228843 Ry
     Harris-Foulkes estimate   =     -33.95263607 Ry
     estimated scf accuracy    <          3.5E-09 Ry
     solvation energy          =      -0.03428400 Ry
     cavitation energy         =       0.01360261 Ry
     PV energy                 =      -0.00691110 Ry

     convergence has been achieved in  17 iterations
     The MT-Environ correction contrib. to forces
     atom    1 type  2   force =    -0.00000000    0.00000000   -0.00575122
     atom    2 type  1   force =    -0.00000000   -0.00010277   -0.00095891
     atom    3 type  1   force =    -0.00000000    0.00010277   -0.00095891
     The dielectric solvent contribution to forces
     atom    1 type  2   force =    -0.00000001    0.00000001   -0.25905018
     atom    2 type  1   force =    -0.00000001    0.03001076   -0.04625758
     atom    3 type  1   force =    -0.00000000   -0.03001075   -0.04625758
     The global environment contribution to forces
     atom    1 type  2   force =    -0.00000001    0.00000002   -0.26480140
     atom    2 type  1   force =    -0.00000001    0.02990799   -0.04721650
     atom    3 type  1   force =    -0.00000000   -0.02990798   -0.04721650
 

     Forces acting on atoms (Ry/au):

     atom    1 type  2   force =    -0.00000001    0.00000036   -0.00004924
     atom    2 type  1   force =     0.00000000    0.00003738    0.00002476
     atom    3 type  1   force =     0.00000001   -0.00003774    0.00002448
     The Martyna-Tuckerman correction term to forces
     atom    1 type  2   force =     0.00000000   -0.00000000    0.00587691
     atom    2 type  1   force =     0.00000000    0.00010533    0.00097986
     atom    3 type  1   force =     0.00000000   -0.00010533    0.00097986
     The non-local contrib.  to forces
     atom    1 type  2   force =    -0.00000006   -0.00000022   -1.55796669
     atom    2 type  1   force =     0.00000000    0.00000000    0.00000000
     atom    3 type  1   force =     0.00000000    0.00000000    0.00000000
     The ionic contribution  to forces
     atom    1 type  2   force =     0.00000013    0.00000090    4.39248768
     atom    2 type  1   force =    -0.00000007    3.06007460   -2.19624294
     atom    3 type  1   force =    -0.00000007   -3.06007550   -2.19624474
     The local contribution  to forces
     atom    1 type  2   force =    -0.00000008   -0.00000038   -2.57525681
     atom    2 type  1   force =     0.00000007   -3.09006112    2.24286539
     atom    3 type  1   force =     0.00000007    3.09006165    2.24286692
     The core correction contribution to forces
     atom    1 type  2   force =     0.00000000    0.00000000    0.00000000
     atom    2 type  1   force =     0.00000000    0.00000000    0.00000000
     atom    3 type  1   force =     0.00000000    0.00000000    0.00000000
     The Hubbard contrib.    to forces
     atom    1 type  2   force =     0.00000000    0.00000000    0.00000000
     atom    2 type  1   force =     0.00000000    0.00000000    0.00000000
     atom    3 type  1   force =     0.00000000    0.00000000    0.00000000
     The SCF correction term to forces
     atom    1 type  2   force =     0.00000000    0.00000000    0.00000000
     atom    2 type  1   force =    -0.00000000    0.00001059   -0.00001200
     atom    3 type  1   force =     0.00000000   -0.00001058   -0.00001200

     Total force =     0.000064     Total SCF correction =     0.000023
     SCF correction compared to forces is large: reduce conv_thr to get better values

     Molecular Dynamics Calculation

     Starting temperature  =   300.00 K

     temperature is controlled by Andersen thermostat
     Collision frequency = 1.0000/timestep
     mass H                =     1.00
     mass O                =    16.00
     Time step             =    20.00 a.u.,  0.9676 femto-seconds

     Entering Dynamics:    iteration =     1
                           time      =   0.0010 pico-seconds


     Andersen thermostat:    3 collisions

ATOMIC_POSITIONS (angstrom)
O        0.000000012  -0.000000112   0.118883585    0   0   0
H        0.002632023   0.764542950  -0.485008386
H       -0.013839088  -0.761569592  -0.478304732


     kinetic energy (Ekin) =     0.00125407 Ry
     temperature           =    66.00081661 K 
     Ekin + Etot (const)   =   -34.06103435 Ry

     Writing output data file h2o_water_mt.save
     Check: negative starting charge=   -0.000818
     NEW-OLD atomic charge density approx. for the potential
     Check: negative starting charge=   -0.000817

     negative rho (up, down):  1.219E-04 0.000E+00

     add environment contribution to local potential

     total cpu time spent up to now is       21.5 secs

     Self-consistent Calculation

     iteration #  1     ecut=    50.00 Ry     beta=0.40
     Davidson diagonalization with overlap
     ethr =  1.00E-06,  avg # of iterations =  4.0

     negative rho (up, down):  6.716E-05 0.000E+00

     add environment contribution to local potential

     total cpu time spent up to now is       22.7 secs

     total energy              =     -34.06217494 Ry
     Harris-Foulkes estimate   =     -33.95479737 Ry
     estimated scf accuracy    <       0.00004802 Ry
     solvation energy          =      -0.03413487 Ry
     cavitation energy         =       0.01363203 Ry
     PV energy                 =      -0.00693146 Ry

     iteration #  2     ecut=    50.00 Ry     beta=0.40
     Davidson diagonalization with overlap
     ethr =  6.00E-07,  avg # of iterations =  2.0

     negative rho (up, down):  3.070E-05 0.000E+00

     add environment contribution to local potential

     total cpu time spent up to now is       23.8 secs

     total energy              =     -34.06213634 Ry
     Harris-Foulkes estimate   =     -33.95461430 Ry
     estimated scf accuracy    <       0.00000904 Ry
     solvation energy          =      -0.03414344 Ry
     cavitation energy         =       0.01362472 Ry
     PV energy                 =      -0.00692674 Ry

     iteration #  3     ecut=    50.00 Ry     beta=0.40
     Davidson diagonalization with overlap
     ethr =  1.13E-07,  avg # of iterations =  2.0

     negative rho (up, down):  2.930E-07 0.000E+00

     add environment contribution to local potential

     total cpu time spent up to now is       24.9 secs

     total energy              =     -34.06211460 Ry
     Harris-Foulkes estimate   =     -33.95458615 Ry
     estimated scf accuracy    <       0.00000264 Ry
     solvation energy          =      -0.03422825 Ry
     cavitation energy         =       0.01361709 Ry
     PV energy                 =      -0.00692170 Ry

     iteration #  4     ecut=    50.00 Ry     beta=0.40
     Davidson diagonalization with overlap
     ethr =  3.30E-08,  avg # of iterations =  2.0

     negative rho (up, down):  6.267E-08 0.000E+00

     add environment contribution to local potential

     total cpu time spent up to now is       26.0 secs

     total energy              =     -34.06217604 Ry
     Harris-Foulkes estimate   =     -33.95441366 Ry
     estimated scf accuracy    <       0.00000020 Ry
     solvation energy          =      -0.03432765 Ry
     cavitation energy         =       0.01361748 Ry
     PV energy                 =      -0.00692207 Ry

     iteration #  5     ecut=    50.00 Ry     beta=0.40
     Davidson diagonalization with overlap
     ethr =  2.48E-09,  avg # of iterations =  3.0

     add environment contribution to local potential

     total cpu time spent up to now is       27.0 secs

     total energy              =     -34.06217288 Ry
     Harris-Foulkes estimate   =     -33.95424812 Ry
     estimated scf accuracy    <       0.00000009 Ry
     solvation energy          =      -0.03436916 Ry
     cavitation energy         =       0.01361710 Ry
     PV energy                 =      -0.00692186 Ry

     iteration #  6     ecut=    50.00 Ry     beta=0.40
     Davidson diagonalization with overlap
     ethr =  1.14E-09,  avg # of iterations =  2.0

     total cpu time spent up to now is       27.2 secs

     End of self-consistent calculation

          k = 0.0000 0.0000 0.0000 ( 47833 PWs)   bands (ev):

   -24.6742 -12.5047  -9.0379  -6.9479

     occupation numbers 
     1.0000   1.0000   1.0000   1.0000

     highest occupied level (ev):    -6.9479

!    total energy              =     -34.06220166 Ry
     Harris-Foulkes estimate   =     -33.95409758 Ry
     estimated scf accuracy    <          5.0E-09 Ry
     solvation energy          =      -0.03439791 Ry
     cavitation energy         =       0.01361710 Ry
     PV energy                 =      -0.00692186 Ry

     convergence has been achieved in   6 iterations
     The MT-Environ correction contrib. to forces
     atom    1 type  2   force =    -0.00005220    0.00000970   -0.00579336
     atom    2 type  1   force =    -0.00000760   -0.00010086   -0.00096622
     atom    3 type  1   force =    -0.00001043    0.00010403   -0.00096513
     The dielectric solvent contribution to forces
     atom    1 type  2   force =    -0.00242398   -0.00035301   -0.26014457
     atom    2 type  1   force =    -0.00011882    0.02971983   -0.04673733
     atom    3 type  1   force =    -0.00073635   -0.02956992   -0.04654281
     The global environment contribution to forces
     atom    1 type  2   force =    -0.00247618   -0.00034332   -0.26593794
     atom    2 type  1   force =    -0.00012642    0.02961898   -0.04770354
     atom    3 type  1   force =    -0.00074678   -0.02946589   -0.04750795
 

     Forces acting on atoms (Ry/au):

     atom    1 type  2   force =     0.00001026    0.00917614   -0.00900674
     atom    2 type  1   force =    -0.00000994   -0.00796822    0.00811488
     atom    3 type  1   force =    -0.00000032   -0.00120791    0.00089186
     The Martyna-Tuckerman correction term to forces
     atom    1 type  2   force =     0.00005348   -0.00001129    0.00592017
     atom    2 type  1   force =     0.00000778    0.00010312    0.00098735
     atom    3 type  1   force =     0.00001070   -0.00010685    0.00098624
     The non-local contrib.  to forces
     atom    1 type  2   force =    -0.01470484   -0.01316606   -1.55807328
     atom    2 type  1   force =     0.00000000    0.00000000    0.00000000
     atom    3 type  1   force =     0.00000000    0.00000000    0.00000000
     The ionic contribution  to forces
     atom    1 type  2   force =     0.04159573    0.04437468    4.39339322
     atom    2 type  1   force =     0.01209881    3.00615119   -2.18825896
     atom    3 type  1   force =    -0.05369454   -3.05052587   -2.20513426
     The local contribution  to forces
     atom    1 type  2   force =    -0.02436576   -0.02190006   -2.58391800
     atom    2 type  1   force =    -0.01198477   -3.04383988    2.24343642
     atom    3 type  1   force =     0.05443610    3.07889118    2.25290758
     The core correction contribution to forces
     atom    1 type  2   force =     0.00000000    0.00000000    0.00000000
     atom    2 type  1   force =     0.00000000    0.00000000    0.00000000
     atom    3 type  1   force =     0.00000000    0.00000000    0.00000000
     The Hubbard contrib.    to forces
     atom    1 type  2   force =     0.00000000    0.00000000    0.00000000
     atom    2 type  1   force =     0.00000000    0.00000000    0.00000000
     atom    3 type  1   force =     0.00000000    0.00000000    0.00000000
     The SCF correction term to forces
     atom    1 type  2   force =     0.00000000    0.00000000    0.00000000
     atom    2 type  1   force =    -0.00000314    0.00000464    0.00000648
     atom    3 type  1   force =    -0.00000360    0.00000579   -0.00000688

     Total force =     0.011472     Total SCF correction =     0.000013

     Entering Dynamics:    iteration =     2
                           time      =   0.0019 pico-seconds


     Andersen thermostat:    3 collisions

ATOMIC_POSITIONS (angstrom)
O        0.000000012  -0.000000112   0.118883585    0   0   0
H        0.011007066   0.750107789  -0.482841492
H        0.011691151  -0.748932417  -0.493860527


     kinetic energy (Ekin) =     0.00534789 Ry
     temperature           =   281.45457248 K 
     Ekin + Etot (const)   =   -34.05685377 Ry

     Writing output data file h2o_water_mt.save
     Check: negative starting charge=   -0.000817
     NEW-OLD atomic charge density approx. for the potential
     Check: negative starting charge=   -0.000824

     negative rho (up, down):  2.995E-04 0.000E+00

     add environment contribution to local potential

     total cpu time spent up to now is       28.7 secs

     Self-consistent Calculation

     iteration #  1     ecut=    50.00 Ry     beta=0.40
     Davidson diagonalization with overlap
     ethr =  1.00E-06,  avg # of iterations =  4.0

     negative rho (up, down):  1.625E-04 0.000E+00

     add environment contribution to local potential

     total cpu time spent up to now is       30.0 secs

     total energy              =     -34.06195727 Ry
     Harris-Foulkes estimate   =     -33.94722004 Ry
     estimated scf accuracy    <       0.00016607 Ry
     solvation energy          =      -0.03493854 Ry
     cavitation energy         =       0.01354771 Ry
     PV energy                 =      -0.00686802 Ry

     iteration #  2     ecut=    50.00 Ry     beta=0.40
     Davidson diagonalization with overlap
     ethr =  2.08E-06,  avg # of iterations =  2.0

     negative rho (up, down):  5.098E-05 0.000E+00

     add environment contribution to local potential

     total cpu time spent up to now is       31.1 secs

     total energy              =     -34.06206866 Ry
     Harris-Foulkes estimate   =     -33.94907238 Ry
     estimated scf accuracy    <       0.00004112 Ry
     solvation energy          =      -0.03476352 Ry
     cavitation energy         =       0.01355956 Ry
     PV energy                 =      -0.00687884 Ry

     iteration #  3     ecut=    50.00 Ry     beta=0.40
     Davidson diagonalization with overlap
     ethr =  5.14E-07,  avg # of iterations =  2.0

     negative rho (up, down):  3.249E-06 0.000E+00

     add environment contribution to local potential

     total cpu time spent up to now is       32.3 secs

     total energy              =     -34.06209198 Ry
     Harris-Foulkes estimate   =     -33.95063440 Ry
     estimated scf accuracy    <       0.00000879 Ry
     solvation energy          =      -0.03455382 Ry
     cavitation energy         =       0.01357748 Ry
     PV energy                 =      -0.00689249 Ry

     iteration #  4     ecut=    50.00 Ry     beta=0.40
     Davidson diagonalization with overlap
     ethr =  1.10E-07,  avg # of iterations =  3.0

     negative rho (up, down):  2.121E-08 0.000E+00

     add environment contribution to local potential

     total cpu time spent up to now is       33.4 secs

     total energy              =     -34.06193904 Ry
     Harris-Foulkes estimate   =     -33.95132909 Ry
     estimated scf accuracy    <       0.00000335 Ry
     solvation energy          =      -0.03439173 Ry
     cavitation energy         =       0.01357393 Ry
     PV energy                 =      -0.00688973 Ry

     iteration #  5     ecut=    50.00 Ry     beta=0.40
     Davidson diagonalization with overlap
     ethr =  4.18E-08,  avg # of iterations =  2.0

     negative rho (up, down):  1.930E-07 0.000E+00

     add environment contribution to local potential

     total cpu time spent up to now is       34.5 secs

     total energy              =     -34.06197771 Ry
     Harris-Foulkes estimate   =     -33.95164479 Ry
     estimated scf accuracy    <       0.00000043 Ry
     solvation energy          =      -0.03438071 Ry
     cavitation energy         =       0.01357464 Ry
     PV energy                 =      -0.00689012 Ry

     iteration #  6     ecut=    50.00 Ry     beta=0.40
     Davidson diagonalization with overlap
     ethr =  5.42E-09,  avg # of iterations =  2.0

     negative rho (up, down):  1.058E-07 0.000E+00

     add environment contribution to local potential

     total cpu time spent up to now is       35.5 secs

     total energy              =     -34.06195686 Ry
     Harris-Foulkes estimate   =     -33.95200024 Ry
     estimated scf accuracy    <       0.00000005 Ry
     solvation energy          =      -0.03433328 Ry
     cavitation energy         =       0.01357461 Ry
     PV energy                 =      -0.00689003 Ry

     iteration #  7     ecut=    50.00 Ry     beta=0.40
     Davidson diagonalization with overlap
     ethr =  6.71E-10,  avg # of iterations =  3.0

     add environment contribution to local potential

     total cpu time spent up to now is       36.5 secs

     total energy              =     -34.06195059 Ry
     Harris-Foulkes estimate   =     -33.95213603 Ry
     estimated scf accuracy    <       0.00000003 Ry
     solvation energy          =      -0.03430866 Ry
     cavitation energy         =       0.01357460 Ry
     PV energy                 =      -0.00688998 Ry

     iteration #  8     ecut=    50.00 Ry     beta=0.40
     Davidson diagonalization with overlap
     ethr =  3.25E-10,  avg # of iterations =  2.0

     total cpu time spent up to now is       36.6 secs

     End of self-consistent calculation

          k = 0.0000 0.0000 0.0000 ( 47833 PWs)   bands (ev):

   -24.7743 -12.4884  -9.1314  -6.9695

     occupation numbers 
     1.0000   1.0000   1.0000   1.0000

     highest occupied level (ev):    -6.9695

!    total energy              =     -34.06193785 Ry
     Harris-Foulkes estimate   =     -33.95221909 Ry
     estimated scf accuracy    <          1.2E-09 Ry
     solvation energy          =      -0.03429591 Ry
     cavitation energy         =       0.01357460 Ry
     PV energy                 =      -0.00688998 Ry

     convergence has been achieved in   8 iterations
     The MT-Environ correction contrib. to forces
     atom    1 type  2   force =     0.00010632    0.00001154   -0.00586232
     atom    2 type  1   force =     0.00001831   -0.00009608   -0.00097541
     atom    3 type  1   force =     0.00001842    0.00009974   -0.00097747
     The dielectric solvent contribution to forces
     atom    1 type  2   force =     0.00494832    0.00113917   -0.26401975
     atom    2 type  1   force =     0.00088287    0.02823038   -0.04761275
     atom    3 type  1   force =     0.00090940   -0.02808059   -0.04798710
     The global environment contribution to forces
     atom    1 type  2   force =     0.00505464    0.00115071   -0.26988207
     atom    2 type  1   force =     0.00090118    0.02813430   -0.04858817
     atom    3 type  1   force =     0.00092782   -0.02798085   -0.04896457
 

     Forces acting on atoms (Ry/au):

     atom    1 type  2   force =     0.00000922   -0.00894759   -0.00066301
     atom    2 type  1   force =     0.00005834    0.01485683   -0.00321415
     atom    3 type  1   force =    -0.00006756   -0.00590925    0.00387717
     The Martyna-Tuckerman correction term to forces
     atom    1 type  2   force =    -0.00010836   -0.00001140    0.00599027
     atom    2 type  1   force =    -0.00001867    0.00009852    0.00099667
     atom    3 type  1   force =    -0.00001878   -0.00010212    0.00099878
     The non-local contrib.  to forces
     atom    1 type  2   force =     0.02984566    0.01763249   -1.59700181
     atom    2 type  1   force =     0.00000000    0.00000000    0.00000000
     atom    3 type  1   force =     0.00000000    0.00000000    0.00000000
     The ionic contribution  to forces
     atom    1 type  2   force =    -0.08467555   -0.05699198    4.53112607
     atom    2 type  1   force =     0.04134721    3.07113316   -2.26450674
     atom    3 type  1   force =     0.04332834   -3.01414118   -2.26661933
     The local contribution  to forces
     atom    1 type  2   force =     0.04991690    0.02927498   -2.67050751
     atom    2 type  1   force =    -0.04217763   -3.08450340    2.30923198
     atom    3 type  1   force =    -0.04431094    3.03630755    2.31881029
     The core correction contribution to forces
     atom    1 type  2   force =     0.00000000    0.00000000    0.00000000
     atom    2 type  1   force =     0.00000000    0.00000000    0.00000000
     atom    3 type  1   force =     0.00000000    0.00000000    0.00000000
     The Hubbard contrib.    to forces
     atom    1 type  2   force =     0.00000000    0.00000000    0.00000000
     atom    2 type  1   force =     0.00000000    0.00000000    0.00000000
     atom    3 type  1   force =     0.00000000    0.00000000    0.00000000
     The SCF correction term to forces
     atom    1 type  2   force =     0.00000000    0.00000000    0.00000000
     atom    2 type  1   force =    -0.00000297   -0.00000822    0.00000469
     atom    3 type  1   force =    -0.00000322    0.00000488    0.00000460

     Total force =     0.016764     Total SCF correction =     0.000012

     Entering Dynamics:    iteration =     3
                           time      =   0.0029 pico-seconds


     Andersen thermostat:    3 collisions

ATOMIC_POSITIONS (angstrom)
O        0.000000012  -0.000000112   0.118883585    0   0   0
H        0.022024514   0.747711117  -0.470137131
H       -0.001137569  -0.792159896  -0.491937136


     kinetic energy (Ekin) =     0.00929886 Ry
     temperature           =   489.39058223 K 
     Ekin + Etot (const)   =   -34.05263899 Ry

     Writing output data file h2o_water_mt.save
     Check: negative starting charge=   -0.000824
     NEW-OLD atomic charge density approx. for the potential
     Check: negative starting charge=   -0.000819

     negative rho (up, down):  3.730E-04 0.000E+00

     add environment contribution to local potential

     total cpu time spent up to now is       38.3 secs

     Self-consistent Calculation

     iteration #  1     ecut=    50.00 Ry     beta=0.40
     Davidson diagonalization with overlap
     ethr =  1.00E-06,  avg # of iterations =  5.0

     negative rho (up, down):  2.089E-04 0.000E+00

     add environment contribution to local potential

     total cpu time spent up to now is       39.5 secs

     total energy              =     -34.05978335 Ry
     Harris-Foulkes estimate   =     -33.95729099 Ry
     estimated scf accuracy    <       0.00049677 Ry
     solvation energy          =      -0.03370282 Ry
     cavitation energy         =       0.01369629 Ry
     PV energy                 =      -0.00697612 Ry

     iteration #  2     ecut=    50.00 Ry     beta=0.40
     Davidson diagonalization with overlap
     ethr =  6.21E-06,  avg # of iterations =  2.0

     negative rho (up, down):  7.658E-05 0.000E+00

     add environment contribution to local potential

     total cpu time spent up to now is       40.7 secs

     total energy              =     -34.05979063 Ry
     Harris-Foulkes estimate   =     -33.95660257 Ry
     estimated scf accuracy    <       0.00010432 Ry
     solvation energy          =      -0.03379637 Ry
     cavitation energy         =       0.01367413 Ry
     PV energy                 =      -0.00696257 Ry

     iteration #  3     ecut=    50.00 Ry     beta=0.40
     Davidson diagonalization with overlap
     ethr =  1.30E-06,  avg # of iterations =  2.0

     negative rho (up, down):  1.155E-05 0.000E+00

     add environment contribution to local potential

     total cpu time spent up to now is       41.9 secs

     total energy              =     -34.05983043 Ry
     Harris-Foulkes estimate   =     -33.95588101 Ry
     estimated scf accuracy    <       0.00001777 Ry
     solvation energy          =      -0.03405155 Ry
     cavitation energy         =       0.01365079 Ry
     PV energy                 =      -0.00694618 Ry

     iteration #  4     ecut=    50.00 Ry     beta=0.40
     Davidson diagonalization with overlap
     ethr =  2.22E-07,  avg # of iterations =  2.0

     negative rho (up, down):  2.272E-06 0.000E+00

     add environment contribution to local potential

     total cpu time spent up to now is       43.1 secs

     total energy              =     -34.06003693 Ry
     Harris-Foulkes estimate   =     -33.95515371 Ry
     estimated scf accuracy    <       0.00000288 Ry
     solvation energy          =      -0.03430447 Ry
     cavitation energy         =       0.01365016 Ry
     PV energy                 =      -0.00694606 Ry

     iteration #  5     ecut=    50.00 Ry     beta=0.40
     Davidson diagonalization with overlap
     ethr =  3.60E-08,  avg # of iterations =  3.0

     negative rho (up, down):  1.922E-07 0.000E+00

     add environment contribution to local potential

     total cpu time spent up to now is       44.2 secs

     total energy              =     -34.06000685 Ry
     Harris-Foulkes estimate   =     -33.95466961 Ry
     estimated scf accuracy    <       0.00000166 Ry
     solvation energy          =      -0.03439189 Ry
     cavitation energy         =       0.01364722 Ry
     PV energy                 =      -0.00694420 Ry

     iteration #  6     ecut=    50.00 Ry     beta=0.40
     Davidson diagonalization with overlap
     ethr =  2.08E-08,  avg # of iterations =  3.0

     negative rho (up, down):  1.066E-07 0.000E+00

     add environment contribution to local potential

     total cpu time spent up to now is       45.4 secs

     total energy              =     -34.06005950 Ry
     Harris-Foulkes estimate   =     -33.95409080 Ry
     estimated scf accuracy    <       0.00000038 Ry
     solvation energy          =      -0.03451340 Ry
     cavitation energy         =       0.01364670 Ry
     PV energy                 =      -0.00694397 Ry

     iteration #  7     ecut=    50.00 Ry     beta=0.40
     Davidson diagonalization with overlap
     ethr =  4.77E-09,  avg # of iterations =  3.0

     add environment contribution to local potential

     total cpu time spent up to now is       46.4 secs

     total energy              =     -34.06009221 Ry
     Harris-Foulkes estimate   =     -33.95379247 Ry
     estimated scf accuracy    <       0.00000005 Ry
     solvation energy          =      -0.03457427 Ry
     cavitation energy         =       0.01364691 Ry
     PV energy                 =      -0.00694418 Ry

     iteration #  8     ecut=    50.00 Ry     beta=0.40
     Davidson diagonalization with overlap
     ethr =  6.64E-10,  avg # of iterations =  3.0

     total cpu time spent up to now is       46.5 secs

     End of self-consistent calculation

          k = 0.0000 0.0000 0.0000 ( 47833 PWs)   bands (ev):

   -24.6199 -12.4793  -8.9988  -6.9336

     occupation numbers 
     1.0000   1.0000   1.0000   1.0000

     highest occupied level (ev):    -6.9336

!    total energy              =     -34.06011237 Ry
     Harris-Foulkes estimate   =     -33.95365799 Ry
     estimated scf accuracy    <          4.2E-09 Ry
     solvation energy          =      -0.03459442 Ry
     cavitation energy         =       0.01364691 Ry
     PV energy                 =      -0.00694418 Ry

     convergence has been achieved in   8 iterations
     The MT-Environ correction contrib. to forces
     atom    1 type  2   force =     0.00009799   -0.00020913   -0.00577897
     atom    2 type  1   force =     0.00001898   -0.00013897   -0.00096277
     atom    3 type  1   force =     0.00001484    0.00007060   -0.00096433
     The dielectric solvent contribution to forces
     atom    1 type  2   force =     0.00460579   -0.00299594   -0.25866101
     atom    2 type  1   force =     0.00126277    0.02858002   -0.04592965
     atom    3 type  1   force =     0.00034618   -0.03202154   -0.04656750
     The global environment contribution to forces
     atom    1 type  2   force =     0.00470378   -0.00320507   -0.26443998
     atom    2 type  1   force =     0.00128175    0.02844105   -0.04689243
     atom    3 type  1   force =     0.00036103   -0.03195093   -0.04753183
 

     Forces acting on atoms (Ry/au):

     atom    1 type  2   force =    -0.00080172   -0.06766356   -0.01316580
     atom    2 type  1   force =     0.00072458    0.02402034   -0.01972326
     atom    3 type  1   force =     0.00007714    0.04364322    0.03288906
     The Martyna-Tuckerman correction term to forces
     atom    1 type  2   force =    -0.00010012    0.00021406    0.00590556
     atom    2 type  1   force =    -0.00001940    0.00014237    0.00098383
     atom    3 type  1   force =    -0.00001516   -0.00007239    0.00098544
     The non-local contrib.  to forces
     atom    1 type  2   force =     0.02874829    0.07003059   -1.53994680
     atom    2 type  1   force =     0.00000000    0.00000000    0.00000000
     atom    3 type  1   force =     0.00000000    0.00000000    0.00000000
     The ionic contribution  to forces
     atom    1 type  2   force =    -0.08169208   -0.25222792    4.32991205
     atom    2 type  1   force =     0.08900716    3.13505891   -2.28309379
     atom    3 type  1   force =    -0.00731508   -2.88283100   -2.04681826
     The local contribution  to forces
     atom    1 type  2   force =     0.04753406    0.11757446   -2.54423118
     atom    2 type  1   force =    -0.08955406   -3.13963177    2.30963661
     atom    3 type  1   force =     0.00703900    2.95850113    2.12660956
     The core correction contribution to forces
     atom    1 type  2   force =     0.00000000    0.00000000    0.00000000
     atom    2 type  1   force =     0.00000000    0.00000000    0.00000000
     atom    3 type  1   force =     0.00000000    0.00000000    0.00000000
     The Hubbard contrib.    to forces
     atom    1 type  2   force =     0.00000000    0.00000000    0.00000000
     atom    2 type  1   force =     0.00000000    0.00000000    0.00000000
     atom    3 type  1   force =     0.00000000    0.00000000    0.00000000
     The SCF correction term to forces
     atom    1 type  2   force =     0.00000000    0.00000000    0.00000000
     atom    2 type  1   force =     0.00000112    0.00000453   -0.00000823
     atom    3 type  1   force =    -0.00000065   -0.00000883   -0.00000661

     Total force =     0.062872     Total SCF correction =     0.000015

     Entering Dynamics:    iteration =     4
                           time      =   0.0039 pico-seconds


     Andersen thermostat:    3 collisions

ATOMIC_POSITIONS (angstrom)
O        0.000000012  -0.000000112   0.118883585    0   0   0
H        0.013421935   0.744641281  -0.461258036
H        0.002550630  -0.793371590  -0.497644338


     kinetic energy (Ekin) =     0.00153896 Ry
     temperature           =    80.99402974 K 
     Ekin + Etot (const)   =   -34.05857341 Ry

     Writing output data file h2o_water_mt.save
     Check: negative starting charge=   -0.000819
     NEW-OLD atomic charge density approx. for the potential
     Check: negative starting charge=   -0.000822

     negative rho (up, down):  1.001E-04 0.000E+00

     add environment contribution to local potential

     total cpu time spent up to now is       48.1 secs

     Self-consistent Calculation

     iteration #  1     ecut=    50.00 Ry     beta=0.40
     Davidson diagonalization with overlap
     ethr =  1.00E-06,  avg # of iterations =  4.0

     negative rho (up, down):  5.456E-05 0.000E+00

     add environment contribution to local potential

     total cpu time spent up to now is       49.2 secs

     total energy              =     -34.05900446 Ry
     Harris-Foulkes estimate   =     -33.95101820 Ry
     estimated scf accuracy    <       0.00004044 Ry
     solvation energy          =      -0.03469973 Ry
     cavitation energy         =       0.01363022 Ry
     PV energy                 =      -0.00693146 Ry

     iteration #  2     ecut=    50.00 Ry     beta=0.40
     Davidson diagonalization with overlap
     ethr =  5.05E-07,  avg # of iterations =  1.0

     negative rho (up, down):  1.434E-05 0.000E+00

     add environment contribution to local potential

     total cpu time spent up to now is       50.4 secs

     total energy              =     -34.05903964 Ry
     Harris-Foulkes estimate   =     -33.95135176 Ry
     estimated scf accuracy    <       0.00000992 Ry
     solvation energy          =      -0.03469660 Ry
     cavitation energy         =       0.01363311 Ry
     PV energy                 =      -0.00693379 Ry

     iteration #  3     ecut=    50.00 Ry     beta=0.40
     Davidson diagonalization with overlap
     ethr =  1.24E-07,  avg # of iterations =  2.0

     negative rho (up, down):  2.910E-06 0.000E+00

     add environment contribution to local potential

     total cpu time spent up to now is       51.5 secs

     total energy              =     -34.05906906 Ry
     Harris-Foulkes estimate   =     -33.95163510 Ry
     estimated scf accuracy    <       0.00000160 Ry
     solvation energy          =      -0.03464455 Ry
     cavitation energy         =       0.01363891 Ry
     PV energy                 =      -0.00693821 Ry

     iteration #  4     ecut=    50.00 Ry     beta=0.40
     Davidson diagonalization with overlap
     ethr =  2.00E-08,  avg # of iterations =  3.0

     negative rho (up, down):  6.168E-07 0.000E+00

     add environment contribution to local potential

     total cpu time spent up to now is       52.5 secs

     total energy              =     -34.05900964 Ry
     Harris-Foulkes estimate   =     -33.95170766 Ry
     estimated scf accuracy    <       0.00000097 Ry
     solvation energy          =      -0.03459897 Ry
     cavitation energy         =       0.01363715 Ry
     PV energy                 =      -0.00693684 Ry

     iteration #  5     ecut=    50.00 Ry     beta=0.40
     Davidson diagonalization with overlap
     ethr =  1.21E-08,  avg # of iterations =  2.0

     add environment contribution to local potential

     total cpu time spent up to now is       53.6 secs

     total energy              =     -34.05903409 Ry
     Harris-Foulkes estimate   =     -33.95179289 Ry
     estimated scf accuracy    <       0.00000016 Ry
     solvation energy          =      -0.03460111 Ry
     cavitation energy         =       0.01363809 Ry
     PV energy                 =      -0.00693754 Ry

     iteration #  6     ecut=    50.00 Ry     beta=0.40
     Davidson diagonalization with overlap
     ethr =  1.94E-09,  avg # of iterations =  2.0

     negative rho (up, down):  1.642E-08 0.000E+00

     add environment contribution to local potential

     total cpu time spent up to now is       54.6 secs

     total energy              =     -34.05902614 Ry
     Harris-Foulkes estimate   =     -33.95187378 Ry
     estimated scf accuracy    <       0.00000003 Ry
     solvation energy          =      -0.03458328 Ry
     cavitation energy         =       0.01363824 Ry
     PV energy                 =      -0.00693764 Ry

     iteration #  7     ecut=    50.00 Ry     beta=0.40
     Davidson diagonalization with overlap
     ethr =  3.20E-10,  avg # of iterations =  3.0

     add environment contribution to local potential

     total cpu time spent up to now is       55.6 secs

     total energy              =     -34.05902083 Ry
     Harris-Foulkes estimate   =     -33.95192334 Ry
     estimated scf accuracy    <          9.7E-09 Ry
     solvation energy          =      -0.03457665 Ry
     cavitation energy         =       0.01363823 Ry
     PV energy                 =      -0.00693763 Ry

     iteration #  8     ecut=    50.00 Ry     beta=0.40
     Davidson diagonalization with overlap
     ethr =  1.21E-10,  avg # of iterations =  2.0

     total cpu time spent up to now is       55.8 secs

     End of self-consistent calculation

          k = 0.0000 0.0000 0.0000 ( 47833 PWs)   bands (ev):

   -24.6436 -12.4999  -8.9972  -6.9369

     occupation numbers 
     1.0000   1.0000   1.0000   1.0000

     highest occupied level (ev):    -6.9369

!    total energy              =     -34.05902002 Ry
     Harris-Foulkes estimate   =     -33.95193421 Ry
     estimated scf accuracy    <          1.7E-09 Ry
     solvation energy          =      -0.03457584 Ry
     cavitation energy         =       0.01363823 Ry
     PV energy                 =      -0.00693763 Ry

     convergence has been achieved in   8 iterations
     The MT-Environ correction contrib. to forces
     atom    1 type  2   force =     0.00007485   -0.00022673   -0.00577348
     atom    2 type  1   force =     0.00001390   -0.00014169   -0.00096063
     atom    3 type  1   force =     0.00001194    0.00006733   -0.00096469
     The dielectric solvent contribution to forces
     atom    1 type  2   force =     0.00350864   -0.00238103   -0.25868554
     atom    2 type  1   force =     0.00082361    0.02837102   -0.04563776
     atom    3 type  1   force =     0.00040503   -0.03224944   -0.04685434
     The global environment contribution to forces
     atom    1 type  2   force =     0.00358350   -0.00260776   -0.26445903
     atom    2 type  1   force =     0.00083751    0.02822933   -0.04659839
     atom    3 type  1   force =     0.00041697   -0.03218211   -0.04781903
 

     Forces acting on atoms (Ry/au):

     atom    1 type  2   force =    -0.00054176   -0.08633062   -0.00710236
     atom    2 type  1   force =     0.00068367    0.03739877   -0.03005855
     atom    3 type  1   force =    -0.00014191    0.04893185    0.03716091
     The Martyna-Tuckerman correction term to forces
     atom    1 type  2   force =    -0.00007659    0.00023116    0.00589935
     atom    2 type  1   force =    -0.00001423    0.00014499    0.00098155
     atom    3 type  1   force =    -0.00001221   -0.00006920    0.00098572
     The non-local contrib.  to forces
     atom    1 type  2   force =     0.02180277    0.09819280   -1.54430680
     atom    2 type  1   force =     0.00000000    0.00000000    0.00000000
     atom    3 type  1   force =     0.00000000    0.00000000    0.00000000
     The ionic contribution  to forces
     atom    1 type  2   force =    -0.06187230   -0.34633544    4.34542157
     atom    2 type  1   force =     0.05510431    3.19846588   -2.30468758
     atom    3 type  1   force =     0.00676798   -2.85213044   -2.04073399
     The local contribution  to forces
     atom    1 type  2   force =     0.03601186    0.16420182   -2.54929722
     atom    2 type  1   force =    -0.05525015   -3.18942526    2.32059503
     atom    3 type  1   force =    -0.00732202    2.93331111    2.12507856
     The core correction contribution to forces
     atom    1 type  2   force =     0.00000000    0.00000000    0.00000000
     atom    2 type  1   force =     0.00000000    0.00000000    0.00000000
     atom    3 type  1   force =     0.00000000    0.00000000    0.00000000
     The Hubbard contrib.    to forces
     atom    1 type  2   force =     0.00000000    0.00000000    0.00000000
     atom    2 type  1   force =     0.00000000    0.00000000    0.00000000
     atom    3 type  1   force =     0.00000000    0.00000000    0.00000000
     The SCF correction term to forces
     atom    1 type  2   force =     0.00000000    0.00000000    0.00000000
     atom    2 type  1   force =    -0.00000011   -0.00001012    0.00000681
     atom    3 type  1   force =     0.00000103    0.00000855    0.00000562

     Total force =     0.077961     Total SCF correction =     0.000016

     Entering Dynamics:    iteration =     5
                           time      =   0.0048 pico-seconds


     Andersen thermostat:    3 collisions

ATOMIC_POSITIONS (angstrom)
O        0.000000012  -0.000000112   0.118883585    0   0   0
H        0.015422625   0.765476247  -0.441652222
H       -0.003100541  -0.759904257  -0.506899453


     kinetic energy (Ekin) =     0.00731136 Ry
     temperature           =   384.79025836 K 
     Ekin + Etot (const)   =   -34.05170866 Ry

     Writing output data file h2o_water_mt.save
     Check: negative starting charge=   -0.000822
     NEW-OLD atomic charge density approx. for the potential
     Check: negative starting charge=   -0.000823

     negative rho (up, down):  4.588E-04 0.000E+00

     add environment contribution to local potential

     total cpu time spent up to now is       57.4 secs

     Self-consistent Calculation

     iteration #  1     ecut=    50.00 Ry     beta=0.40
     Davidson diagonalization with overlap
     ethr =  1.00E-06,  avg # of iterations =  5.0

     negative rho (up, down):  2.231E-04 0.000E+00

     add environment contribution to local potential

     total cpu time spent up to now is       58.6 secs

     total energy              =     -34.06116843 Ry
     Harris-Foulkes estimate   =     -33.94588040 Ry
     estimated scf accuracy    <       0.00027808 Ry
     solvation energy          =      -0.03528299 Ry
     cavitation energy         =       0.01356663 Ry
     PV energy                 =      -0.00688296 Ry

     iteration #  2     ecut=    50.00 Ry     beta=0.40
     Davidson diagonalization with overlap
     ethr =  3.48E-06,  avg # of iterations =  2.0

     negative rho (up, down):  6.740E-05 0.000E+00

     add environment contribution to local potential

     total cpu time spent up to now is       59.8 secs

     total energy              =     -34.06133392 Ry
     Harris-Foulkes estimate   =     -33.94760111 Ry
     estimated scf accuracy    <       0.00006630 Ry
     solvation energy          =      -0.03508222 Ry
     cavitation energy         =       0.01358076 Ry
     PV energy                 =      -0.00689467 Ry

     iteration #  3     ecut=    50.00 Ry     beta=0.40
     Davidson diagonalization with overlap
     ethr =  8.29E-07,  avg # of iterations =  2.0

     negative rho (up, down):  7.051E-06 0.000E+00

     add environment contribution to local potential

     total cpu time spent up to now is       61.0 secs

     total energy              =     -34.06137508 Ry
     Harris-Foulkes estimate   =     -33.94914346 Ry
     estimated scf accuracy    <       0.00001174 Ry
     solvation energy          =      -0.03475725 Ry
     cavitation energy         =       0.01359757 Ry
     PV energy                 =      -0.00690774 Ry

     iteration #  4     ecut=    50.00 Ry     beta=0.40
     Davidson diagonalization with overlap
     ethr =  1.47E-07,  avg # of iterations =  2.0

     negative rho (up, down):  1.614E-06 0.000E+00

     add environment contribution to local potential

     total cpu time spent up to now is       62.2 secs

     total energy              =     -34.06118477 Ry
     Harris-Foulkes estimate   =     -33.94998967 Ry
     estimated scf accuracy    <       0.00000247 Ry
     solvation energy          =      -0.03451235 Ry
     cavitation energy         =       0.01359508 Ry
     PV energy                 =      -0.00690572 Ry

     iteration #  5     ecut=    50.00 Ry     beta=0.40
     Davidson diagonalization with overlap
     ethr =  3.09E-08,  avg # of iterations =  3.0

     negative rho (up, down):  2.323E-07 0.000E+00

     add environment contribution to local potential

     total cpu time spent up to now is       63.3 secs

     total energy              =     -34.06127480 Ry
     Harris-Foulkes estimate   =     -33.95038445 Ry
     estimated scf accuracy    <       0.00000144 Ry
     solvation energy          =      -0.03443092 Ry
     cavitation energy         =       0.01359828 Ry
     PV energy                 =      -0.00690792 Ry

     iteration #  6     ecut=    50.00 Ry     beta=0.40
     Davidson diagonalization with overlap
     ethr =  1.79E-08,  avg # of iterations =  3.0

     negative rho (up, down):  1.438E-08 0.000E+00

     add environment contribution to local potential

     total cpu time spent up to now is       64.4 secs

     total energy              =     -34.06116811 Ry
     Harris-Foulkes estimate   =     -33.95095041 Ry
     estimated scf accuracy    <       0.00000008 Ry
     solvation energy          =      -0.03431512 Ry
     cavitation energy         =       0.01359768 Ry
     PV energy                 =      -0.00690743 Ry

     iteration #  7     ecut=    50.00 Ry     beta=0.40
     Davidson diagonalization with overlap
     ethr =  9.94E-10,  avg # of iterations =  3.0

     add environment contribution to local potential

     total cpu time spent up to now is       65.4 secs

     total energy              =     -34.06117351 Ry
     Harris-Foulkes estimate   =     -33.95104655 Ry
     estimated scf accuracy    <       0.00000001 Ry
     solvation energy          =      -0.03430329 Ry
     cavitation energy         =       0.01359766 Ry
     PV energy                 =      -0.00690737 Ry

     iteration #  8     ecut=    50.00 Ry     beta=0.40
     Davidson diagonalization with overlap
     ethr =  1.60E-10,  avg # of iterations =  3.0

     total cpu time spent up to now is       65.6 secs

     End of self-consistent calculation

          k = 0.0000 0.0000 0.0000 ( 47833 PWs)   bands (ev):

   -24.7149 -12.5804  -9.0120  -6.9545

     occupation numbers 
     1.0000   1.0000   1.0000   1.0000

     highest occupied level (ev):    -6.9545

!    total energy              =     -34.06116067 Ry
     Harris-Foulkes estimate   =     -33.95114719 Ry
     estimated scf accuracy    <          1.6E-09 Ry
     solvation energy          =      -0.03429044 Ry
     cavitation energy         =       0.01359766 Ry
     PV energy                 =      -0.00690737 Ry

     convergence has been achieved in   8 iterations
     The MT-Environ correction contrib. to forces
     atom    1 type  2   force =     0.00005812    0.00005025   -0.00574905
     atom    2 type  1   force =     0.00001164   -0.00009448   -0.00095229
     atom    3 type  1   force =     0.00000841    0.00010992   -0.00096481
     The dielectric solvent contribution to forces
     atom    1 type  2   force =     0.00274709    0.00587215   -0.25894725
     atom    2 type  1   force =     0.00084074    0.03018565   -0.04502421
     atom    3 type  1   force =     0.00011648   -0.02985567   -0.04749000
     The global environment contribution to forces
     atom    1 type  2   force =     0.00280522    0.00592241   -0.26469630
     atom    2 type  1   force =     0.00085239    0.03009117   -0.04597650
     atom    3 type  1   force =     0.00012488   -0.02974575   -0.04845481
 

     Forces acting on atoms (Ry/au):

     atom    1 type  2   force =    -0.00070197   -0.05303359    0.00321332
     atom    2 type  1   force =     0.00060565    0.03003746   -0.02207093
     atom    3 type  1   force =     0.00009632    0.02299613    0.01885760
     The Martyna-Tuckerman correction term to forces
     atom    1 type  2   force =    -0.00005944   -0.00005252    0.00587408
     atom    2 type  1   force =    -0.00001192    0.00009664    0.00097298
     atom    3 type  1   force =    -0.00000859   -0.00011282    0.00098579
     The non-local contrib.  to forces
     atom    1 type  2   force =     0.01739408    0.10345371   -1.55851160
     atom    2 type  1   force =     0.00000000    0.00000000    0.00000000
     atom    3 type  1   force =     0.00000000    0.00000000    0.00000000
     The ionic contribution  to forces
     atom    1 type  2   force =    -0.04959587   -0.33383683    4.39508199
     atom    2 type  1   force =     0.06336320    3.23836751   -2.18794430
     atom    3 type  1   force =    -0.01376733   -2.90453068   -2.20713768
     The local contribution  to forces
     atom    1 type  2   force =     0.02874142    0.17150027   -2.57418608
     atom    2 type  1   force =    -0.06360314   -3.23850751    2.21122329
     atom    3 type  1   force =     0.01374245    2.95738691    2.27381047
     The core correction contribution to forces
     atom    1 type  2   force =     0.00000000    0.00000000    0.00000000
     atom    2 type  1   force =     0.00000000    0.00000000    0.00000000
     atom    3 type  1   force =     0.00000000    0.00000000    0.00000000
     The Hubbard contrib.    to forces
     atom    1 type  2   force =     0.00000000    0.00000000    0.00000000
     atom    2 type  1   force =     0.00000000    0.00000000    0.00000000
     atom    3 type  1   force =     0.00000000    0.00000000    0.00000000
     The SCF correction term to forces
     atom    1 type  2   force =     0.00000000    0.00000000    0.00000000
     atom    2 type  1   force =     0.00000063   -0.00000305    0.00000361
     atom    3 type  1   force =     0.00000042    0.00000579    0.00000385

     Total force =     0.047688     Total SCF correction =     0.000008

     Entering Dynamics:    iteration =     6
                           time      =   0.0058 pico-seconds


     Andersen thermostat:    3 collisions

ATOMIC_POSITIONS (angstrom)
O        0.000000012  -0.000000112   0.118883585    0   0   0
H        0.027246191   0.804993586  -0.448760798
H        0.008503768  -0.746887537  -0.525099112


     kinetic energy (Ekin) =     0.00860128 Ry
     temperature           =   452.67773249 K 
     Ekin + Etot (const)   =   -34.05255939 Ry

     Writing output data file h2o_water_mt.save
     Check: negative starting charge=   -0.000823
     NEW-OLD atomic charge density approx. for the potential
     Check: negative starting charge=   -0.000811

     negative rho (up, down):  3.805E-04 0.000E+00

     add environment contribution to local potential

     total cpu time spent up to now is       67.1 secs

     Self-consistent Calculation

     iteration #  1     ecut=    50.00 Ry     beta=0.40
     Davidson diagonalization with overlap
     ethr =  1.00E-06,  avg # of iterations =  5.0

     negative rho (up, down):  2.124E-04 0.000E+00

     add environment contribution to local potential

     total cpu time spent up to now is       68.4 secs

     total energy              =     -34.06091298 Ry
     Harris-Foulkes estimate   =     -33.96411928 Ry
     estimated scf accuracy    <       0.00099029 Ry
     solvation energy          =      -0.03337780 Ry
     cavitation energy         =       0.01378188 Ry
     PV energy                 =      -0.00703791 Ry

     iteration #  2     ecut=    50.00 Ry     beta=0.40
     Davidson diagonalization with overlap
     ethr =  1.24E-05,  avg # of iterations =  2.0

     negative rho (up, down):  1.117E-04 0.000E+00

     add environment contribution to local potential

     total cpu time spent up to now is       69.6 secs

     total energy              =     -34.06084813 Ry
     Harris-Foulkes estimate   =     -33.96235613 Ry
     estimated scf accuracy    <       0.00010786 Ry
     solvation energy          =      -0.03347039 Ry
     cavitation energy         =       0.01374173 Ry
     PV energy                 =      -0.00701097 Ry

     iteration #  3     ecut=    50.00 Ry     beta=0.40
     Davidson diagonalization with overlap
     ethr =  1.35E-06,  avg # of iterations =  2.0

     negative rho (up, down):  1.136E-05 0.000E+00

     add environment contribution to local potential

     total cpu time spent up to now is       70.8 secs

     total energy              =     -34.06076736 Ry
     Harris-Foulkes estimate   =     -33.96186277 Ry
     estimated scf accuracy    <       0.00003302 Ry
     solvation energy          =      -0.03387839 Ry
     cavitation energy         =       0.01370048 Ry
     PV energy                 =      -0.00698319 Ry

     iteration #  4     ecut=    50.00 Ry     beta=0.40
     Davidson diagonalization with overlap
     ethr =  4.13E-07,  avg # of iterations =  2.0

     negative rho (up, down):  5.818E-06 0.000E+00

     add environment contribution to local potential

     total cpu time spent up to now is       71.9 secs

     total energy              =     -34.06112699 Ry
     Harris-Foulkes estimate   =     -33.96059235 Ry
     estimated scf accuracy    <       0.00000310 Ry
     solvation energy          =      -0.03434873 Ry
     cavitation energy         =       0.01370136 Ry
     PV energy                 =      -0.00698435 Ry

     iteration #  5     ecut=    50.00 Ry     beta=0.40
     Davidson diagonalization with overlap
     ethr =  3.88E-08,  avg # of iterations =  3.0

     negative rho (up, down):  4.364E-07 0.000E+00

     add environment contribution to local potential

     total cpu time spent up to now is       73.1 secs

     total energy              =     -34.06107687 Ry
     Harris-Foulkes estimate   =     -33.95975478 Ry
     estimated scf accuracy    <       0.00000204 Ry
     solvation energy          =      -0.03451265 Ry
     cavitation energy         =       0.01369884 Ry
     PV energy                 =      -0.00698301 Ry

     iteration #  6     ecut=    50.00 Ry     beta=0.40
     Davidson diagonalization with overlap
     ethr =  2.55E-08,  avg # of iterations =  2.0

     negative rho (up, down):  2.719E-07 0.000E+00

     add environment contribution to local potential

     total cpu time spent up to now is       74.2 secs

     total energy              =     -34.06115076 Ry
     Harris-Foulkes estimate   =     -33.95873817 Ry
     estimated scf accuracy    <       0.00000063 Ry
     solvation energy          =      -0.03470705 Ry
     cavitation energy         =       0.01369596 Ry
     PV energy                 =      -0.00698108 Ry

     iteration #  7     ecut=    50.00 Ry     beta=0.40
     Davidson diagonalization with overlap
     ethr =  7.91E-09,  avg # of iterations =  3.0

     add environment contribution to local potential

     total cpu time spent up to now is       75.3 secs

     total energy              =     -34.06120650 Ry
     Harris-Foulkes estimate   =     -33.95827746 Ry
     estimated scf accuracy    <       0.00000010 Ry
     solvation energy          =      -0.03480978 Ry
     cavitation energy         =       0.01369643 Ry
     PV energy                 =      -0.00698152 Ry

     iteration #  8     ecut=    50.00 Ry     beta=0.40
     Davidson diagonalization with overlap
     ethr =  1.22E-09,  avg # of iterations =  3.0

     add environment contribution to local potential

     total cpu time spent up to now is       76.2 secs

     total energy              =     -34.06123536 Ry
     Harris-Foulkes estimate   =     -33.95801767 Ry
     estimated scf accuracy    <          6.6E-09 Ry
     solvation energy          =      -0.03484360 Ry
     cavitation energy         =       0.01369651 Ry
     PV energy                 =      -0.00698159 Ry

     iteration #  9     ecut=    50.00 Ry     beta=0.40
     Davidson diagonalization with overlap
     ethr =  8.23E-11,  avg # of iterations =  2.0

     total cpu time spent up to now is       76.4 secs

     End of self-consistent calculation

          k = 0.0000 0.0000 0.0000 ( 47833 PWs)   bands (ev):

   -24.5087 -12.3830  -8.9833  -6.9119

     occupation numbers 
     1.0000   1.0000   1.0000   1.0000

     highest occupied level (ev):    -6.9119

!    total energy              =     -34.06123897 Ry
     Harris-Foulkes estimate   =     -33.95797577 Ry
     estimated scf accuracy    <          2.5E-09 Ry
     solvation energy          =      -0.03484719 Ry
     cavitation energy         =       0.01369651 Ry
     PV energy                 =      -0.00698159 Ry

     convergence has been achieved in   9 iterations
     The MT-Environ correction contrib. to forces
     atom    1 type  2   force =     0.00016589    0.00031080   -0.00580185
     atom    2 type  1   force =     0.00003034   -0.00005630   -0.00095820
     atom    3 type  1   force =     0.00002701    0.00015635   -0.00097627
     The dielectric solvent contribution to forces
     atom    1 type  2   force =     0.00762425    0.01234725   -0.25789003
     atom    2 type  1   force =     0.00173117    0.03272989   -0.04468400
     atom    3 type  1   force =     0.00100138   -0.02832980   -0.04769186
     The global environment contribution to forces
     atom    1 type  2   force =     0.00779014    0.01265805   -0.26369188
     atom    2 type  1   force =     0.00176151    0.03267360   -0.04564221
     atom    3 type  1   force =     0.00102839   -0.02817345   -0.04866813
 

     Forces acting on atoms (Ry/au):

     atom    1 type  2   force =     0.00105109    0.00063259   -0.03623611
     atom    2 type  1   force =    -0.00081932   -0.02557215    0.01644719
     atom    3 type  1   force =    -0.00023177    0.02493956    0.01978892
     The Martyna-Tuckerman correction term to forces
     atom    1 type  2   force =    -0.00016933   -0.00031857    0.00592804
     atom    2 type  1   force =    -0.00003099    0.00005768    0.00097902
     atom    3 type  1   force =    -0.00002757   -0.00016023    0.00099750
     The non-local contrib.  to forces
     atom    1 type  2   force =     0.04465501    0.07466969   -1.51261273
     atom    2 type  1   force =     0.00000000    0.00000000    0.00000000
     atom    3 type  1   force =     0.00000000    0.00000000    0.00000000
     The ionic contribution  to forces
     atom    1 type  2   force =    -0.12507402   -0.20999998    4.23545077
     atom    2 type  1   force =     0.09814511    3.04602860   -1.97575575
     atom    3 type  1   force =     0.02692891   -2.83602862   -2.25969502
     The local contribution  to forces
     atom    1 type  2   force =     0.07384595    0.12356127   -2.50096522
     atom    2 type  1   force =    -0.10070473   -3.10432022    2.03719859
     atom    3 type  1   force =    -0.02817158    2.88929759    2.32749043
     The core correction contribution to forces
     atom    1 type  2   force =     0.00000000    0.00000000    0.00000000
     atom    2 type  1   force =     0.00000000    0.00000000    0.00000000
     atom    3 type  1   force =     0.00000000    0.00000000    0.00000000
     The Hubbard contrib.    to forces
     atom    1 type  2   force =     0.00000000    0.00000000    0.00000000
     atom    2 type  1   force =     0.00000000    0.00000000    0.00000000
     atom    3 type  1   force =     0.00000000    0.00000000    0.00000000
     The SCF correction term to forces
     atom    1 type  2   force =     0.00000000    0.00000000    0.00000000
     atom    2 type  1   force =    -0.00000074   -0.00000463    0.00000816
     atom    3 type  1   force =    -0.00000044    0.00001146    0.00000476

     Total force =     0.044031     Total SCF correction =     0.000016

     Entering Dynamics:    iteration =     7
                           time      =   0.0068 pico-seconds


     Andersen thermostat:    3 collisions

ATOMIC_POSITIONS (angstrom)
O        0.000000012  -0.000000112   0.118883585    0   0   0
H        0.028121106   0.793039035  -0.449615821
H       -0.003571783  -0.741527166  -0.511699223


     kinetic energy (Ekin) =     0.00148020 Ry
     temperature           =    77.90159189 K 
     Ekin + Etot (const)   =   -34.05975877 Ry

     Writing output data file h2o_water_mt.save
     Check: negative starting charge=   -0.000811
     NEW-OLD atomic charge density approx. for the potential
     Check: negative starting charge=   -0.000817

     negative rho (up, down):  1.753E-04 0.000E+00

     add environment contribution to local potential

     total cpu time spent up to now is       77.9 secs

     Self-consistent Calculation

     iteration #  1     ecut=    50.00 Ry     beta=0.40
     Davidson diagonalization with overlap
     ethr =  1.00E-06,  avg # of iterations =  4.0

     negative rho (up, down):  9.471E-05 0.000E+00

     add environment contribution to local potential

     total cpu time spent up to now is       79.1 secs

     total energy              =     -34.06216824 Ry
     Harris-Foulkes estimate   =     -33.94977729 Ry
     estimated scf accuracy    <       0.00024026 Ry
     solvation energy          =      -0.03556036 Ry
     cavitation energy         =       0.01359035 Ry
     PV energy                 =      -0.00690413 Ry

     iteration #  2     ecut=    50.00 Ry     beta=0.40
     Davidson diagonalization with overlap
     ethr =  3.00E-06,  avg # of iterations =  2.0

     negative rho (up, down):  4.935E-05 0.000E+00

     add environment contribution to local potential

     total cpu time spent up to now is       80.2 secs

     total energy              =     -34.06229779 Ry
     Harris-Foulkes estimate   =     -33.95134363 Ry
     estimated scf accuracy    <       0.00001830 Ry
     solvation energy          =      -0.03540903 Ry
     cavitation energy         =       0.01361143 Ry
     PV energy                 =      -0.00691946 Ry

     iteration #  3     ecut=    50.00 Ry     beta=0.40
     Davidson diagonalization with overlap
     ethr =  2.29E-07,  avg # of iterations =  2.0

     negative rho (up, down):  1.069E-06 0.000E+00

     add environment contribution to local potential

     total cpu time spent up to now is       81.3 secs

     total energy              =     -34.06243724 Ry
     Harris-Foulkes estimate   =     -33.95206382 Ry
     estimated scf accuracy    <       0.00000638 Ry
     solvation energy          =      -0.03513614 Ry
     cavitation energy         =       0.01363773 Ry
     PV energy                 =      -0.00693805 Ry

     iteration #  4     ecut=    50.00 Ry     beta=0.40
     Davidson diagonalization with overlap
     ethr =  7.97E-08,  avg # of iterations =  2.0

     negative rho (up, down):  2.300E-06 0.000E+00

     add environment contribution to local potential

     total cpu time spent up to now is       82.4 secs

     total energy              =     -34.06216785 Ry
     Harris-Foulkes estimate   =     -33.95344569 Ry
     estimated scf accuracy    <       0.00000048 Ry
     solvation energy          =      -0.03479811 Ry
     cavitation energy         =       0.01363563 Ry
     PV energy                 =      -0.00693635 Ry

     iteration #  5     ecut=    50.00 Ry     beta=0.40
     Davidson diagonalization with overlap
     ethr =  5.96E-09,  avg # of iterations =  3.0

     negative rho (up, down):  2.946E-07 0.000E+00

     add environment contribution to local potential

     total cpu time spent up to now is       83.5 secs

     total energy              =     -34.06223449 Ry
     Harris-Foulkes estimate   =     -33.95389180 Ry
     estimated scf accuracy    <       0.00000034 Ry
     solvation energy          =      -0.03470891 Ry
     cavitation energy         =       0.01363739 Ry
     PV energy                 =      -0.00693735 Ry

     iteration #  6     ecut=    50.00 Ry     beta=0.40
     Davidson diagonalization with overlap
     ethr =  4.23E-09,  avg # of iterations =  2.0

     negative rho (up, down):  6.049E-08 0.000E+00

     add environment contribution to local potential

     total cpu time spent up to now is       84.5 secs

     total energy              =     -34.06215452 Ry
     Harris-Foulkes estimate   =     -33.95462037 Ry
     estimated scf accuracy    <       0.00000005 Ry
     solvation energy          =      -0.03458790 Ry
     cavitation energy         =       0.01363865 Ry
     PV energy                 =      -0.00693820 Ry

     iteration #  7     ecut=    50.00 Ry     beta=0.40
     Davidson diagonalization with overlap
[...]

     add environment contribution to local potential

     total cpu time spent up to now is     1262.3 secs

     total energy              =     -34.06074659 Ry
     Harris-Foulkes estimate   =     -33.94836846 Ry
     estimated scf accuracy    <       0.00000075 Ry
     solvation energy          =      -0.03411618 Ry
     cavitation energy         =       0.01355942 Ry
     PV energy                 =      -0.00687874 Ry

     iteration #  6     ecut=    50.00 Ry     beta=0.40
     Davidson diagonalization with overlap
     ethr =  9.36E-09,  avg # of iterations =  2.0

     negative rho (up, down):  1.041E-08 0.000E+00

     add environment contribution to local potential

     total cpu time spent up to now is     1263.2 secs

     total energy              =     -34.06070085 Ry
     Harris-Foulkes estimate   =     -33.94846231 Ry
     estimated scf accuracy    <       0.00000013 Ry
     solvation energy          =      -0.03407802 Ry
     cavitation energy         =       0.01355913 Ry
     PV energy                 =      -0.00687850 Ry

     iteration #  7     ecut=    50.00 Ry     beta=0.40
     Davidson diagonalization with overlap
     ethr =  1.68E-09,  avg # of iterations =  2.0

     add environment contribution to local potential

     total cpu time spent up to now is     1264.1 secs

     total energy              =     -34.06070342 Ry
     Harris-Foulkes estimate   =     -33.94846597 Ry
     estimated scf accuracy    <       0.00000004 Ry
     solvation energy          =      -0.03408352 Ry
     cavitation energy         =       0.01355879 Ry
     PV energy                 =      -0.00687824 Ry

     iteration #  8     ecut=    50.00 Ry     beta=0.40
     Davidson diagonalization with overlap
     ethr =  4.53E-10,  avg # of iterations =  2.0

     total cpu time spent up to now is     1264.2 secs

     End of self-consistent calculation

          k = 0.0000 0.0000 0.0000 ( 47833 PWs)   bands (ev):

   -24.7996 -12.6342  -9.0441  -6.9725

     occupation numbers 
     1.0000   1.0000   1.0000   1.0000

     highest occupied level (ev):    -6.9725

!    total energy              =     -34.06070487 Ry
     Harris-Foulkes estimate   =     -33.94848596 Ry
     estimated scf accuracy    <          3.7E-10 Ry
     solvation energy          =      -0.03408495 Ry
     cavitation energy         =       0.01355879 Ry
     PV energy                 =      -0.00687824 Ry

     convergence has been achieved in   8 iterations
     The MT-Environ correction contrib. to forces
     atom    1 type  2   force =     0.00028876    0.00000764   -0.00574015
     atom    2 type  1   force =     0.00007258   -0.00008866   -0.00096004
     atom    3 type  1   force =     0.00002708    0.00009183   -0.00095387
     The dielectric solvent contribution to forces
     atom    1 type  2   force =     0.01269293   -0.00370058   -0.25986008
     atom    2 type  1   force =     0.00795234    0.02918010   -0.04716717
     atom    3 type  1   force =    -0.00306722   -0.02869846   -0.04576726
     The global environment contribution to forces
     atom    1 type  2   force =     0.01298169   -0.00369295   -0.26560023
     atom    2 type  1   force =     0.00802492    0.02909144   -0.04812721
     atom    3 type  1   force =    -0.00304013   -0.02860664   -0.04672113
 

     Forces acting on atoms (Ry/au):

     atom    1 type  2   force =     0.01010141    0.05802791    0.01851706
     atom    2 type  1   force =    -0.00335393   -0.01391217    0.01344580
     atom    3 type  1   force =    -0.00674747   -0.04411575   -0.03196286
     The Martyna-Tuckerman correction term to forces
     atom    1 type  2   force =    -0.00029482   -0.00000683    0.00586520
     atom    2 type  1   force =    -0.00007427    0.00009102    0.00098095
     atom    3 type  1   force =    -0.00002753   -0.00009392    0.00097463
     The non-local contrib.  to forces
     atom    1 type  2   force =     0.06340253   -0.09445561   -1.58151326
     atom    2 type  1   force =     0.00000000    0.00000000    0.00000000
     atom    3 type  1   force =     0.00000000    0.00000000    0.00000000
     The ionic contribution  to forces
     atom    1 type  2   force =    -0.17105927    0.31194938    4.47675560
     atom    2 type  1   force =     0.66614522    2.90132499   -2.18668576
     atom    3 type  1   force =    -0.49508596   -3.21327437   -2.29006984
     The local contribution  to forces
     atom    1 type  2   force =     0.10503232   -0.15575359   -2.61664065
     atom    2 type  1   force =    -0.67748011   -2.94442606    2.24763286
     atom    3 type  1   force =     0.49137482    3.19785025    2.30420712
     The core correction contribution to forces
     atom    1 type  2   force =     0.00000000    0.00000000    0.00000000
     atom    2 type  1   force =     0.00000000    0.00000000    0.00000000
     atom    3 type  1   force =     0.00000000    0.00000000    0.00000000
     The Hubbard contrib.    to forces
     atom    1 type  2   force =     0.00000000    0.00000000    0.00000000
     atom    2 type  1   force =     0.00000000    0.00000000    0.00000000
     atom    3 type  1   force =     0.00000000    0.00000000    0.00000000
     The SCF correction term to forces
     atom    1 type  2   force =     0.00000000    0.00000000    0.00000000
     atom    2 type  1   force =     0.00000020   -0.00000245    0.00000087
     atom    3 type  1   force =     0.00000122    0.00000003    0.00000227

     Total force =     0.058300     Total SCF correction =     0.000004

     Entering Dynamics:    iteration =   131
                           time      =   0.1267 pico-seconds


     Andersen thermostat:    3 collisions

ATOMIC_POSITIONS (angstrom)
O        0.000000012  -0.000000112   0.118883585    0   0   0
H        0.197822792   0.740705961  -0.506007406
H       -0.105316509  -0.739369021  -0.483418043


     kinetic energy (Ekin) =     0.00712504 Ry
     temperature           =   374.98431462 K 
     Ekin + Etot (const)   =   -34.05357983 Ry

     Writing output data file h2o_water_mt.save
     Check: negative starting charge=   -0.000834
     NEW-OLD atomic charge density approx. for the potential
     Check: negative starting charge=   -0.000826

     negative rho (up, down):  3.338E-04 0.000E+00

     add environment contribution to local potential

     total cpu time spent up to now is     1265.7 secs

     Self-consistent Calculation

     iteration #  1     ecut=    50.00 Ry     beta=0.40
     Davidson diagonalization with overlap
     ethr =  1.00E-06,  avg # of iterations =  5.0

     negative rho (up, down):  1.870E-04 0.000E+00

     add environment contribution to local potential

     total cpu time spent up to now is     1266.9 secs

     total energy              =     -34.06093787 Ry
     Harris-Foulkes estimate   =     -33.95849479 Ry
     estimated scf accuracy    <       0.00059033 Ry
     solvation energy          =      -0.03342925 Ry
     cavitation energy         =       0.01368839 Ry
     PV energy                 =      -0.00696827 Ry

     iteration #  2     ecut=    50.00 Ry     beta=0.40
     Davidson diagonalization with overlap
     ethr =  7.38E-06,  avg # of iterations =  2.0

     negative rho (up, down):  1.018E-04 0.000E+00

     add environment contribution to local potential

     total cpu time spent up to now is     1268.1 secs

     total energy              =     -34.06085570 Ry
     Harris-Foulkes estimate   =     -33.95768741 Ry
     estimated scf accuracy    <       0.00006017 Ry
     solvation energy          =      -0.03345363 Ry
     cavitation energy         =       0.01365919 Ry
     PV energy                 =      -0.00694914 Ry

     iteration #  3     ecut=    50.00 Ry     beta=0.40
     Davidson diagonalization with overlap
     ethr =  7.52E-07,  avg # of iterations =  2.0

     negative rho (up, down):  1.911E-06 0.000E+00

     add environment contribution to local potential

     total cpu time spent up to now is     1269.2 secs

     total energy              =     -34.06074582 Ry
     Harris-Foulkes estimate   =     -33.95760662 Ry
     estimated scf accuracy    <       0.00002246 Ry
     solvation energy          =      -0.03380013 Ry
     cavitation energy         =       0.01362418 Ry
     PV energy                 =      -0.00692626 Ry

     iteration #  4     ecut=    50.00 Ry     beta=0.40
     Davidson diagonalization with overlap
     ethr =  2.81E-07,  avg # of iterations =  2.0

     negative rho (up, down):  1.492E-06 0.000E+00

     add environment contribution to local potential

     total cpu time spent up to now is     1270.3 secs

     total energy              =     -34.06106941 Ry
     Harris-Foulkes estimate   =     -33.95677318 Ry
     estimated scf accuracy    <       0.00000154 Ry
     solvation energy          =      -0.03422745 Ry
     cavitation energy         =       0.01362550 Ry
     PV energy                 =      -0.00692747 Ry

     iteration #  5     ecut=    50.00 Ry     beta=0.40
     Davidson diagonalization with overlap
     ethr =  1.93E-08,  avg # of iterations =  3.0

     add environment contribution to local potential

     total cpu time spent up to now is     1271.4 secs

     total energy              =     -34.06098793 Ry
     Harris-Foulkes estimate   =     -33.95620441 Ry
     estimated scf accuracy    <       0.00000086 Ry
     solvation energy          =      -0.03439011 Ry
     cavitation energy         =       0.01362396 Ry
     PV energy                 =      -0.00692676 Ry

     iteration #  6     ecut=    50.00 Ry     beta=0.40
     Davidson diagonalization with overlap
     ethr =  1.08E-08,  avg # of iterations =  2.0

     negative rho (up, down):  1.322E-07 0.000E+00

     add environment contribution to local potential

     total cpu time spent up to now is     1272.3 secs

     total energy              =     -34.06113926 Ry
     Harris-Foulkes estimate   =     -33.95522528 Ry
     estimated scf accuracy    <       0.00000003 Ry
     solvation energy          =      -0.03455443 Ry
     cavitation energy         =       0.01362346 Ry
     PV energy                 =      -0.00692643 Ry

     iteration #  7     ecut=    50.00 Ry     beta=0.40
     Davidson diagonalization with overlap
     ethr =  3.37E-10,  avg # of iterations =  3.0

     add environment contribution to local potential

     total cpu time spent up to now is     1273.3 secs

     total energy              =     -34.06113073 Ry
     Harris-Foulkes estimate   =     -33.95515528 Ry
     estimated scf accuracy    <       0.00000001 Ry
     solvation energy          =      -0.03457383 Ry
     cavitation energy         =       0.01362353 Ry
     PV energy                 =      -0.00692652 Ry

     iteration #  8     ecut=    50.00 Ry     beta=0.40
     Davidson diagonalization with overlap
     ethr =  1.41E-10,  avg # of iterations =  2.0

     total cpu time spent up to now is     1273.5 secs

     End of self-consistent calculation

          k = 0.0000 0.0000 0.0000 ( 47833 PWs)   bands (ev):

   -24.6790 -12.3839  -9.1233  -6.9492

     occupation numbers 
     1.0000   1.0000   1.0000   1.0000

     highest occupied level (ev):    -6.9492

!    total energy              =     -34.06114954 Ry
     Harris-Foulkes estimate   =     -33.95500664 Ry
     estimated scf accuracy    <          7.9E-10 Ry
     solvation energy          =      -0.03459262 Ry
     cavitation energy         =       0.01362353 Ry
     PV energy                 =      -0.00692652 Ry

     convergence has been achieved in   8 iterations
     The MT-Environ correction contrib. to forces
     atom    1 type  2   force =     0.00042778   -0.00001248   -0.00588757
     atom    2 type  1   force =     0.00009748   -0.00009051   -0.00098211
     atom    3 type  1   force =     0.00005023    0.00008696   -0.00097915
     The dielectric solvent contribution to forces
     atom    1 type  2   force =     0.01905750   -0.00364018   -0.26323337
     atom    2 type  1   force =     0.00921146    0.02772278   -0.04815402
     atom    3 type  1   force =    -0.00202565   -0.02768438   -0.04738749
     The global environment contribution to forces
     atom    1 type  2   force =     0.01948528   -0.00365266   -0.26912094
     atom    2 type  1   force =     0.00930895    0.02763227   -0.04913613
     atom    3 type  1   force =    -0.00197542   -0.02759741   -0.04836664
 

     Forces acting on atoms (Ry/au):

     atom    1 type  2   force =     0.00968799    0.04016561   -0.02011394
     atom    2 type  1   force =    -0.00650023   -0.02199049    0.02672797
     atom    3 type  1   force =    -0.00318776   -0.01817512   -0.00661402
     The Martyna-Tuckerman correction term to forces
     atom    1 type  2   force =    -0.00043680    0.00001349    0.00601650
     atom    2 type  1   force =    -0.00009972    0.00009285    0.00100360
     atom    3 type  1   force =    -0.00005118   -0.00008898    0.00100056
     The non-local contrib.  to forces
     atom    1 type  2   force =     0.10314156   -0.07373050   -1.57210353
     atom    2 type  1   force =     0.00000000    0.00000000    0.00000000
     atom    3 type  1   force =     0.00000000    0.00000000    0.00000000
     The ionic contribution  to forces
     atom    1 type  2   force =    -0.28526075    0.24071157    4.44744984
     atom    2 type  1   force =     0.73342902    2.80086097   -2.16651023
     atom    3 type  1   force =    -0.44816827   -3.04157254   -2.28093962
     The local contribution  to forces
     atom    1 type  2   force =     0.17274729   -0.12319988   -2.63200932
     atom    2 type  1   force =    -0.74917051   -2.85058756    2.24172683
     atom    3 type  1   force =     0.44697686    3.05108083    2.32204953
     The core correction contribution to forces
     atom    1 type  2   force =     0.00000000    0.00000000    0.00000000
     atom    2 type  1   force =     0.00000000    0.00000000    0.00000000
     atom    3 type  1   force =     0.00000000    0.00000000    0.00000000
     The Hubbard contrib.    to forces
     atom    1 type  2   force =     0.00000000    0.00000000    0.00000000
     atom    2 type  1   force =     0.00000000    0.00000000    0.00000000
     atom    3 type  1   force =     0.00000000    0.00000000    0.00000000
     The SCF correction term to forces
     atom    1 type  2   force =     0.00000000    0.00000000    0.00000000
     atom    2 type  1   force =    -0.00000025    0.00000341   -0.00000266
     atom    3 type  1   force =    -0.00000203   -0.00000459   -0.00000441

     Total force =     0.040305     Total SCF correction =     0.000008

     Entering Dynamics:    iteration =   132
                           time      =   0.1277 pico-seconds


     Andersen thermostat:    3 collisions

ATOMIC_POSITIONS (angstrom)
O        0.000000012  -0.000000112   0.118883585    0   0   0
H        0.186168644   0.709439377  -0.500266773
H       -0.104101943  -0.749489047  -0.485783275


     kinetic energy (Ekin) =     0.00414749 Ry
     temperature           =   218.27864237 K 
     Ekin + Etot (const)   =   -34.05700205 Ry

     Writing output data file h2o_water_mt.save
     Check: negative starting charge=   -0.000826
     NEW-OLD atomic charge density approx. for the potential
     Check: negative starting charge=   -0.000831

     negative rho (up, down):  3.951E-04 0.000E+00

     add environment contribution to local potential

     total cpu time spent up to now is     1275.1 secs

     Self-consistent Calculation

     iteration #  1     ecut=    50.00 Ry     beta=0.40
     Davidson diagonalization with overlap
     ethr =  1.00E-06,  avg # of iterations =  5.0

     negative rho (up, down):  1.803E-04 0.000E+00

     add environment contribution to local potential

     total cpu time spent up to now is     1276.4 secs

     total energy              =     -34.06165461 Ry
     Harris-Foulkes estimate   =     -33.94634439 Ry
     estimated scf accuracy    <       0.00039099 Ry
     solvation energy          =      -0.03537650 Ry
     cavitation energy         =       0.01352559 Ry
     PV energy                 =      -0.00685290 Ry

     iteration #  2     ecut=    50.00 Ry     beta=0.40
     Davidson diagonalization with overlap
     ethr =  4.89E-06,  avg # of iterations =  2.0

     negative rho (up, down):  6.514E-05 0.000E+00

     add environment contribution to local potential

     total cpu time spent up to now is     1277.6 secs

     total energy              =     -34.06179422 Ry
     Harris-Foulkes estimate   =     -33.94808185 Ry
     estimated scf accuracy    <       0.00007136 Ry
     solvation energy          =      -0.03518434 Ry
     cavitation energy         =       0.01354276 Ry
     PV energy                 =      -0.00686669 Ry

     iteration #  3     ecut=    50.00 Ry     beta=0.40
     Davidson diagonalization with overlap
     ethr =  8.92E-07,  avg # of iterations =  2.0

     negative rho (up, down):  1.049E-05 0.000E+00

     add environment contribution to local potential

     total cpu time spent up to now is     1278.8 secs

     total energy              =     -34.06182661 Ry
     Harris-Foulkes estimate   =     -33.94951892 Ry
     estimated scf accuracy    <       0.00001224 Ry
     solvation energy          =      -0.03487318 Ry
     cavitation energy         =       0.01356185 Ry
     PV energy                 =      -0.00688100 Ry

     iteration #  4     ecut=    50.00 Ry     beta=0.40
     Davidson diagonalization with overlap
     ethr =  1.53E-07,  avg # of iterations =  2.0

     negative rho (up, down):  1.996E-06 0.000E+00

     add environment contribution to local potential

     total cpu time spent up to now is     1280.0 secs

     total energy              =     -34.06168505 Ry
     Harris-Foulkes estimate   =     -33.95060252 Ry
     estimated scf accuracy    <       0.00000151 Ry
     solvation energy          =      -0.03460749 Ry
     cavitation energy         =       0.01356474 Ry
     PV energy                 =      -0.00688292 Ry

     iteration #  5     ecut=    50.00 Ry     beta=0.40
     Davidson diagonalization with overlap
     ethr =  1.89E-08,  avg # of iterations =  3.0

     add environment contribution to local potential

     total cpu time spent up to now is     1281.1 secs

     total energy              =     -34.06169148 Ry
     Harris-Foulkes estimate   =     -33.95118326 Ry
     estimated scf accuracy    <       0.00000096 Ry
     solvation energy          =      -0.03449340 Ry
     cavitation energy         =       0.01356688 Ry
     PV energy                 =      -0.00688428 Ry

     iteration #  6     ecut=    50.00 Ry     beta=0.40
     Davidson diagonalization with overlap
     ethr =  1.20E-08,  avg # of iterations =  3.0

     negative rho (up, down):  1.088E-07 0.000E+00

     add environment contribution to local potential

     total cpu time spent up to now is     1282.2 secs

     total energy              =     -34.06164311 Ry
     Harris-Foulkes estimate   =     -33.95174183 Ry
     estimated scf accuracy    <       0.00000021 Ry
     solvation energy          =      -0.03439515 Ry
     cavitation energy         =       0.01356772 Ry
     PV energy                 =      -0.00688483 Ry

     iteration #  7     ecut=    50.00 Ry     beta=0.40
     Davidson diagonalization with overlap
     ethr =  2.60E-09,  avg # of iterations =  3.0

     add environment contribution to local potential

     total cpu time spent up to now is     1283.2 secs

     total energy              =     -34.06162017 Ry
     Harris-Foulkes estimate   =     -33.95195595 Ry
     estimated scf accuracy    <       0.00000005 Ry
     solvation energy          =      -0.03435550 Ry
     cavitation energy         =       0.01356691 Ry
     PV energy                 =      -0.00688418 Ry

     iteration #  8     ecut=    50.00 Ry     beta=0.40
     Davidson diagonalization with overlap
